 Entering Gaussian System, Link 0=g16
 Input=/home/duckter/Documents/KET_DFT_demo/acetone.gjf
 Output=/home/duckter/Documents/KET_DFT_demo/acetone.log
 Initial command:
 /home/duckter/g16/l1.exe "/home/duckter/g16/scratch/Gau-55030.inp" -scrdir="/home/duckter/g16/scratch/"
 Entering Link 1 = /home/duckter/g16/l1.exe PID=     55033.
  
 Copyright (c) 1988-2019, Gaussian, Inc.  All Rights Reserved.
  
 This is part of the Gaussian(R) 16 program.  It is based on
 the Gaussian(R) 09 system (copyright 2009, Gaussian, Inc.),
 the Gaussian(R) 03 system (copyright 2003, Gaussian, Inc.),
 the Gaussian(R) 98 system (copyright 1998, Gaussian, Inc.),
 the Gaussian(R) 94 system (copyright 1995, Gaussian, Inc.),
 the Gaussian 92(TM) system (copyright 1992, Gaussian, Inc.),
 the Gaussian 90(TM) system (copyright 1990, Gaussian, Inc.),
 the Gaussian 88(TM) system (copyright 1988, Gaussian, Inc.),
 the Gaussian 86(TM) system (copyright 1986, Carnegie Mellon
 University), and the Gaussian 82(TM) system (copyright 1983,
 Carnegie Mellon University). Gaussian is a federally registered
 trademark of Gaussian, Inc.
  
 This software contains proprietary and confidential information,
 including trade secrets, belonging to Gaussian, Inc.
  
 This software is provided under written license and may be
 used, copied, transmitted, or stored only in accord with that
 written license.
  
 The following legend is applicable only to US Government
 contracts under FAR:
  
                    RESTRICTED RIGHTS LEGEND
  
 Use, reproduction and disclosure by the US Government is
 subject to restrictions as set forth in subparagraphs (a)
 and (c) of the Commercial Computer Software - Restricted
 Rights clause in FAR 52.227-19.
  
 Gaussian, Inc.
 340 Quinnipiac St., Bldg. 40, Wallingford CT 06492
  
  
 ---------------------------------------------------------------
 Warning -- This program may not be used in any manner that
 competes with the business of Gaussian, Inc. or will provide
 assistance to any competitor of Gaussian, Inc.  The licensee
 of this program is prohibited from giving any competitor of
 Gaussian, Inc. access to this program.  By using this program,
 the user acknowledges that Gaussian, Inc. is engaged in the
 business of creating and licensing software in the field of
 computational chemistry and represents and warrants to the
 licensee that it is not a competitor of Gaussian, Inc. and that
 it will not use this program in any manner prohibited above.
 ---------------------------------------------------------------
  

 Cite this work as:
 Gaussian 16, Revision C.01,
 M. J. Frisch, G. W. Trucks, H. B. Schlegel, G. E. Scuseria, 
 M. A. Robb, J. R. Cheeseman, G. Scalmani, V. Barone, 
 G. A. Petersson, H. Nakatsuji, X. Li, M. Caricato, A. V. Marenich, 
 J. Bloino, B. G. Janesko, R. Gomperts, B. Mennucci, H. P. Hratchian, 
 J. V. Ortiz, A. F. Izmaylov, J. L. Sonnenberg, D. Williams-Young, 
 F. Ding, F. Lipparini, F. Egidi, J. Goings, B. Peng, A. Petrone, 
 T. Henderson, D. Ranasinghe, V. G. Zakrzewski, J. Gao, N. Rega, 
 G. Zheng, W. Liang, M. Hada, M. Ehara, K. Toyota, R. Fukuda, 
 J. Hasegawa, M. Ishida, T. Nakajima, Y. Honda, O. Kitao, H. Nakai, 
 T. Vreven, K. Throssell, J. A. Montgomery, Jr., J. E. Peralta, 
 F. Ogliaro, M. J. Bearpark, J. J. Heyd, E. N. Brothers, K. N. Kudin, 
 V. N. Staroverov, T. A. Keith, R. Kobayashi, J. Normand, 
 K. Raghavachari, A. P. Rendell, J. C. Burant, S. S. Iyengar, 
 J. Tomasi, M. Cossi, J. M. Millam, M. Klene, C. Adamo, R. Cammi, 
 J. W. Ochterski, R. L. Martin, K. Morokuma, O. Farkas, 
 J. B. Foresman, and D. J. Fox, Gaussian, Inc., Wallingford CT, 2019.
 
 ******************************************
 Gaussian 16:  ES64L-G16RevC.01  3-Jul-2019
                24-Jun-2024 
 ******************************************
 %nprocshared=16
 Will use up to   16 processors via shared memory.
 %chk=acetone.chk
 ---------------------------------------------------------
 # opt freq b3lyp/6-31+g(d) scrf empiricaldispersion=gd3bj
 ---------------------------------------------------------
 1/18=20,19=15,26=3,38=1/1,3;
 2/9=110,12=2,17=6,18=5,40=1/2;
 3/5=1,6=6,7=11,11=2,25=1,30=1,70=2201,71=1,74=-5,124=41/1,2,3;
 4//1;
 5/5=2,38=5/2;
 6/7=2,8=2,9=2,10=2,28=1/1;
 7//1,2,3,16;
 1/18=20,19=15,26=3/3(2);
 2/9=110/2;
 99//99;
 2/9=110/2;
 3/5=1,6=6,7=11,11=2,25=1,30=1,70=2205,71=1,74=-5,124=41/1,2,3;
 4/5=5,16=3,69=1/1;
 5/5=2,38=5/2;
 7//1,2,3,16;
 1/18=20,19=15,26=3/3(-5);
 2/9=110/2;
 6/7=2,8=2,9=2,10=2,19=2,28=1/1;
 99/9=1/99;
 -------------------
 Title card required
 -------------------
 Symbolic Z-matrix:
 Charge =  0 Multiplicity = 1
 C                    -4.10156   0.10938   0. 
 H                    -3.33425  -0.53263  -0.37942 
 H                    -4.36448   0.83028  -0.7457 
 H                    -4.96262  -0.47392   0.25147 
 C                    -3.58822   0.83533   1.2574 
 C                    -2.35062   0.1005    1.8051 
 H                    -1.58277   0.09088   1.05997 
 H                    -1.99372   0.60512   2.67853 
 H                    -2.61547  -0.90505   2.05733 
 O                    -4.61459   0.84776   2.25305 
 

 GradGradGradGradGradGradGradGradGradGradGradGradGradGradGradGradGradGrad
 Berny optimization.
 Initialization pass.
                           ----------------------------
                           !    Initial Parameters    !
                           ! (Angstroms and Degrees)  !
 --------------------------                            --------------------------
 ! Name  Definition              Value          Derivative Info.                !
 --------------------------------------------------------------------------------
 ! R1    R(1,2)                  1.07           estimate D2E/DX2                !
 ! R2    R(1,3)                  1.07           estimate D2E/DX2                !
 ! R3    R(1,4)                  1.07           estimate D2E/DX2                !
 ! R4    R(1,5)                  1.54           estimate D2E/DX2                !
 ! R5    R(5,6)                  1.54           estimate D2E/DX2                !
 ! R6    R(5,10)                 1.43           estimate D2E/DX2                !
 ! R7    R(6,7)                  1.07           estimate D2E/DX2                !
 ! R8    R(6,8)                  1.07           estimate D2E/DX2                !
 ! R9    R(6,9)                  1.07           estimate D2E/DX2                !
 ! A1    A(2,1,3)              109.4712         estimate D2E/DX2                !
 ! A2    A(2,1,4)              109.4712         estimate D2E/DX2                !
 ! A3    A(2,1,5)              109.4712         estimate D2E/DX2                !
 ! A4    A(3,1,4)              109.4712         estimate D2E/DX2                !
 ! A5    A(3,1,5)              109.4713         estimate D2E/DX2                !
 ! A6    A(4,1,5)              109.4712         estimate D2E/DX2                !
 ! A7    A(1,5,6)              109.4712         estimate D2E/DX2                !
 ! A8    A(1,5,10)             109.4712         estimate D2E/DX2                !
 ! A9    A(6,5,10)             109.4712         estimate D2E/DX2                !
 ! A10   A(5,6,7)              109.4712         estimate D2E/DX2                !
 ! A11   A(5,6,8)              109.4712         estimate D2E/DX2                !
 ! A12   A(5,6,9)              109.4712         estimate D2E/DX2                !
 ! A13   A(7,6,8)              109.4713         estimate D2E/DX2                !
 ! A14   A(7,6,9)              109.4712         estimate D2E/DX2                !
 ! A15   A(8,6,9)              109.4712         estimate D2E/DX2                !
 ! D1    D(2,1,5,6)            -17.5325         estimate D2E/DX2                !
 ! D2    D(2,1,5,10)          -137.5325         estimate D2E/DX2                !
 ! D3    D(3,1,5,6)           -137.5325         estimate D2E/DX2                !
 ! D4    D(3,1,5,10)           102.4675         estimate D2E/DX2                !
 ! D5    D(4,1,5,6)            102.4675         estimate D2E/DX2                !
 ! D6    D(4,1,5,10)           -17.5325         estimate D2E/DX2                !
 ! D7    D(1,5,6,7)             59.9786         estimate D2E/DX2                !
 ! D8    D(1,5,6,8)            179.9786         estimate D2E/DX2                !
 ! D9    D(1,5,6,9)            -60.0214         estimate D2E/DX2                !
 ! D10   D(10,5,6,7)           179.9786         estimate D2E/DX2                !
 ! D11   D(10,5,6,8)           -60.0214         estimate D2E/DX2                !
 ! D12   D(10,5,6,9)            59.9786         estimate D2E/DX2                !
 --------------------------------------------------------------------------------
 Trust Radius=3.00D-01 FncErr=1.00D-07 GrdErr=1.00D-06 EigMax=2.50D+02 EigMin=1.00D-04
 Number of steps in this run=     46 maximum allowed number of steps=    100.
 GradGradGradGradGradGradGradGradGradGradGradGradGradGradGradGradGradGrad

                          Input orientation:                          
 ---------------------------------------------------------------------
 Center     Atomic      Atomic             Coordinates (Angstroms)
 Number     Number       Type             X           Y           Z
 ---------------------------------------------------------------------
      1          6           0       -4.101562    0.109375    0.000000
      2          1           0       -3.334253   -0.532632   -0.379424
      3          1           0       -4.364484    0.830281   -0.745699
      4          1           0       -4.962623   -0.473923    0.251471
      5          6           0       -3.588220    0.835331    1.257405
      6          6           0       -2.350618    0.100503    1.805098
      7          1           0       -1.582767    0.090879    1.059972
      8          1           0       -1.993722    0.605116    2.678534
      9          1           0       -2.615472   -0.905048    2.057327
     10          8           0       -4.614593    0.847758    2.253048
 ---------------------------------------------------------------------
                    Distance matrix (angstroms):
                    1          2          3          4          5
     1  C    0.000000
     2  H    1.070000   0.000000
     3  H    1.070000   1.747302   0.000000
     4  H    1.070000   1.747303   1.747303   0.000000
     5  C    1.540000   2.148263   2.148263   2.148263   0.000000
     6  C    2.514809   2.478010   3.330885   3.092943   1.540000
     7  H    2.732803   2.351240   3.397810   3.520810   2.148263
     8  H    3.444314   3.527407   4.170921   3.983634   2.148263
     9  H    2.733151   2.567702   3.731938   2.992675   2.148263
    10  O    2.425826   3.236457   3.009209   2.423690   1.430000
                    6          7          8          9         10
     6  C    0.000000
     7  H    1.070000   0.000000
     8  H    1.070000   1.747303   0.000000
     9  H    1.070000   1.747303   1.747303   0.000000
    10  O    2.425826   3.344886   2.666248   2.665918   0.000000
 Stoichiometry    C3H6O
 Framework group  C1[X(C3H6O)]
 Deg. of freedom    24
 Full point group                 C1      NOp   1
 Largest Abelian subgroup         C1      NOp   1
 Largest concise Abelian subgroup C1      NOp   1
                         Standard orientation:                         
 ---------------------------------------------------------------------
 Center     Atomic      Atomic             Coordinates (Angstroms)
 Number     Number       Type             X           Y           Z
 ---------------------------------------------------------------------
      1          6           0       -1.257405   -0.625670    0.061211
      2          1           0       -0.993244   -1.621325    0.350677
      3          1           0       -1.978261   -0.663255   -0.728633
      4          1           0       -1.674361   -0.109036    0.900340
      5          6           0        0.000000    0.117856   -0.426336
      6          6           0        1.257404   -0.625671    0.061211
      7          1           0        1.257215   -1.621462   -0.330326
      8          1           0        2.131056   -0.109273   -0.277854
      9          1           0        1.257593   -0.662886    1.130564
     10          8           0        0.000001    1.448519    0.097339
 ---------------------------------------------------------------------
 Rotational constants (GHZ):           9.3071374           8.5912860           4.9342827
 Standard basis: 6-31+G(d) (6D, 7F)
 There are    88 symmetry adapted cartesian basis functions of A   symmetry.
 There are    88 symmetry adapted basis functions of A   symmetry.
    88 basis functions,   152 primitive gaussians,    88 cartesian basis functions
    16 alpha electrons       16 beta electrons
       nuclear repulsion energy       116.3842769602 Hartrees.
 NAtoms=   10 NActive=   10 NUniq=   10 SFac= 1.00D+00 NAtFMM=   60 NAOKFM=F Big=F
 Integral buffers will be    131072 words long.
 Raffenetti 2 integral format.
 Two-electron integral symmetry is turned on.
 Nuclear repulsion after empirical dispersion term =      116.3742440455 Hartrees.
 ------------------------------------------------------------------------------
 Polarizable Continuum Model (PCM)
 =================================
 Model                : PCM.
 Atomic radii         : UFF (Universal Force Field).
 Polarization charges : Total charges.
 Charge compensation  : None.
 Solution method      : On-the-fly selection.
 Cavity type          : Scaled VdW (van der Waals Surface) (Alpha=1.100).
 Cavity algorithm     : GePol (No added spheres)
                        Default sphere list used, NSphG=   10.
                        Lebedev-Laikov grids with approx.  5.0 points / Ang**2.
                        Smoothing algorithm: York/Karplus (Gamma=1.0000).
                        Polarization charges: spherical gaussians, with
                                              point-specific exponents (IZeta= 3).
                        Self-potential: point-specific (ISelfS= 7).
                        Self-field    : sphere-specific E.n sum rule (ISelfD= 2).
 1st derivatives      : Analytical E(r).r(x)/FMM algorithm (CHGder, D1EAlg=3).
                        Cavity 1st derivative terms included.
 Solvent              : Water, Eps=  78.355300 Eps(inf)=   1.777849
 ------------------------------------------------------------------------------
 Spheres list:
 ISph  on   Nord     Re0    Alpha      Xe            Ye            Ze
    1   C      1    1.9255  1.100     -1.257405     -0.625670      0.061211
    2   H      2    1.4430  1.100     -0.993244     -1.621325      0.350677
    3   H      3    1.4430  1.100     -1.978261     -0.663255     -0.728633
    4   H      4    1.4430  1.100     -1.674361     -0.109036      0.900340
    5   C      5    1.9255  1.100      0.000000      0.117856     -0.426336
    6   C      6    1.9255  1.100      1.257404     -0.625671      0.061211
    7   H      7    1.4430  1.100      1.257215     -1.621462     -0.330326
    8   H      8    1.4430  1.100      2.131056     -0.109273     -0.277854
    9   H      9    1.4430  1.100      1.257593     -0.662886      1.130564
   10   O     10    1.7500  1.100      0.000001      1.448519      0.097339
 ------------------------------------------------------------------------------
 One-electron integrals computed using PRISM.
 NBasis=    88 RedAO= T EigKep=  1.57D-04  NBF=    88
 NBsUse=    88 1.00D-06 EigRej= -1.00D+00 NBFU=    88
 ExpMin= 4.38D-02 ExpMax= 5.48D+03 ExpMxC= 8.25D+02 IAcc=3 IRadAn=         5 AccDes= 0.00D+00
 Harris functional with IExCor=  402 and IRadAn=       5 diagonalized for initial guess.
 HarFok:  IExCor=  402 AccDes= 0.00D+00 IRadAn=         5 IDoV= 1 UseB2=F ITyADJ=14
 ICtDFT=  3500011 ScaDFX=  1.000000  1.000000  1.000000  1.000000
 FoFCou: FMM=F IPFlag=           0 FMFlag=      100000 FMFlg1=           0
         NFxFlg=           0 DoJE=T BraDBF=F KetDBF=T FulRan=T
         wScrn=  0.000000 ICntrl=       500 IOpCl=  0 I1Cent=   200000004 NGrid=           0
         NMat0=    1 NMatS0=      1 NMatT0=    0 NMatD0=    1 NMtDS0=    0 NMtDT0=    0
 Petite list used in FoFCou.
 Keep R1 ints in memory in canonical form, NReq=22295982.
 Requested convergence on RMS density matrix=1.00D-08 within 128 cycles.
 Requested convergence on MAX density matrix=1.00D-06.
 Requested convergence on             energy=1.00D-06.
 No special actions if energy rises.
 Inv3:  Mode=1 IEnd=     2413827.
 Iteration    1 A*A^-1 deviation from unit magnitude is 3.55D-15 for    897.
 Iteration    1 A*A^-1 deviation from orthogonality  is 2.02D-15 for    646    106.
 Iteration    1 A^-1*A deviation from unit magnitude is 3.11D-15 for    885.
 Iteration    1 A^-1*A deviation from orthogonality  is 1.22D-15 for    897    874.
 Error on total polarization charges =  0.01124
 SCF Done:  E(RB3LYP) =  -193.088889307     A.U. after   14 cycles
            NFock= 14  Conv=0.52D-08     -V/T= 2.0108

 **********************************************************************

            Population analysis using the SCF Density.

 **********************************************************************

 Orbital symmetries:
       Occupied  (A) (A) (A) (A) (A) (A) (A) (A) (A) (A) (A) (A)
                 (A) (A) (A) (A)
       Virtual   (A) (A) (A) (A) (A) (A) (A) (A) (A) (A) (A) (A)
                 (A) (A) (A) (A) (A) (A) (A) (A) (A) (A) (A) (A)
                 (A) (A) (A) (A) (A) (A) (A) (A) (A) (A) (A) (A)
                 (A) (A) (A) (A) (A) (A) (A) (A) (A) (A) (A) (A)
                 (A) (A) (A) (A) (A) (A) (A) (A) (A) (A) (A) (A)
                 (A) (A) (A) (A) (A) (A) (A) (A) (A) (A) (A) (A)
 The electronic state is 1-A.
 Alpha  occ. eigenvalues --  -19.17109 -10.31571 -10.19767 -10.19538  -0.97249
 Alpha  occ. eigenvalues --   -0.78043  -0.71586  -0.55480  -0.46259  -0.46128
 Alpha  occ. eigenvalues --   -0.44331  -0.41820  -0.38631  -0.37557  -0.32239
 Alpha  occ. eigenvalues --   -0.26709
 Alpha virt. eigenvalues --   -0.12441   0.01750   0.03542   0.04315   0.05114
 Alpha virt. eigenvalues --    0.06715   0.07758   0.08170   0.08293   0.09742
 Alpha virt. eigenvalues --    0.12314   0.13250   0.14241   0.17823   0.18455
 Alpha virt. eigenvalues --    0.20752   0.21052   0.22764   0.24028   0.25356
 Alpha virt. eigenvalues --    0.27680   0.29078   0.31046   0.32537   0.33780
 Alpha virt. eigenvalues --    0.36154   0.60551   0.62890   0.63283   0.66649
 Alpha virt. eigenvalues --    0.68665   0.71543   0.71955   0.73673   0.76277
 Alpha virt. eigenvalues --    0.92189   0.96986   0.98018   1.00105   1.05428
 Alpha virt. eigenvalues --    1.12210   1.13302   1.19218   1.21307   1.27326
 Alpha virt. eigenvalues --    1.30409   1.35040   1.41527   1.43199   1.59037
 Alpha virt. eigenvalues --    1.75220   1.79019   1.79422   1.87647   1.87932
 Alpha virt. eigenvalues --    1.93479   1.96627   1.98134   2.10219   2.22948
 Alpha virt. eigenvalues --    2.25268   2.30702   2.36247   2.46926   2.50932
 Alpha virt. eigenvalues --    2.51968   2.71137   2.89320   4.09931   4.23043
 Alpha virt. eigenvalues --    4.29748   4.49225
          Condensed to atoms (all electrons):
               1          2          3          4          5          6
     1  C    5.714153   0.398024   0.357355   0.404729   0.111256  -0.109167
     2  H    0.398024   0.476169  -0.022480  -0.029383  -0.077513   0.015446
     3  H    0.357355  -0.022480   0.468070  -0.021321  -0.020803  -0.000397
     4  H    0.404729  -0.029383  -0.021321   0.444340  -0.032591  -0.006009
     5  C    0.111256  -0.077513  -0.020803  -0.032591   4.921157   0.235297
     6  C   -0.109167   0.015446  -0.000397  -0.006009   0.235297   5.606700
     7  H   -0.000390  -0.000805   0.000102   0.000153  -0.052378   0.377463
     8  H    0.013683   0.000512  -0.000175  -0.000118  -0.057081   0.387944
     9  H   -0.015115  -0.001460   0.000177  -0.000164  -0.012019   0.387953
    10  O   -0.134447   0.006289   0.002922  -0.017721   0.462491  -0.131026
               7          8          9         10
     1  C   -0.000390   0.013683  -0.015115  -0.134447
     2  H   -0.000805   0.000512  -0.001460   0.006289
     3  H    0.000102  -0.000175   0.000177   0.002922
     4  H    0.000153  -0.000118  -0.000164  -0.017721
     5  C   -0.052378  -0.057081  -0.012019   0.462491
     6  C    0.377463   0.387944   0.387953  -0.131026
     7  H    0.491836  -0.023135  -0.031183   0.008763
     8  H   -0.023135   0.465751  -0.021377  -0.000157
     9  H   -0.031183  -0.021377   0.442234  -0.017578
    10  O    0.008763  -0.000157  -0.017578   8.300460
 Mulliken charges:
               1
     1  C   -0.740082
     2  H    0.235202
     3  H    0.236551
     4  H    0.258084
     5  C    0.522185
     6  C   -0.764205
     7  H    0.229574
     8  H    0.234153
     9  H    0.268533
    10  O   -0.479996
 Sum of Mulliken charges =  -0.00000
 Mulliken charges with hydrogens summed into heavy atoms:
               1
     1  C   -0.010245
     5  C    0.522185
     6  C   -0.031944
    10  O   -0.479996
 Electronic spatial extent (au):  <R**2>=            294.9013
 Charge=             -0.0000 electrons
 Dipole moment (field-independent basis, Debye):
    X=             -0.0605    Y=             -4.5992    Z=             -0.2483  Tot=              4.6063
 Quadrupole moment (field-independent basis, Debye-Ang):
   XX=            -23.5511   YY=            -30.9487   ZZ=            -23.9511
   XY=             -0.0345   XZ=              0.1252   YZ=             -0.4058
 Traceless Quadrupole moment (field-independent basis, Debye-Ang):
   XX=              2.5992   YY=             -4.7984   ZZ=              2.1992
   XY=             -0.0345   XZ=              0.1252   YZ=             -0.4058
 Octapole moment (field-independent basis, Debye-Ang**2):
  XXX=             -0.1357  YYY=            -11.0332  ZZZ=              1.7505  XYY=              0.1620
  XXY=             -0.9990  XXZ=              0.2331  XZZ=             -0.4535  YZZ=              0.0290
  YYZ=              0.2841  XYZ=             -0.5005
 Hexadecapole moment (field-independent basis, Debye-Ang**3):
 XXXX=           -187.1109 YYYY=           -168.2901 ZZZZ=            -41.9643 XXXY=              1.3073
 XXXZ=              0.0796 YYYX=             -0.6775 YYYZ=              0.7131 ZZZX=              1.3336
 ZZZY=              0.4542 XXYY=            -60.7202 XXZZ=            -36.5450 YYZZ=            -33.5227
 XXYZ=              0.2674 YYXZ=             -0.5661 ZZXY=             -0.4279
 N-N= 1.163742440455D+02 E-N=-6.822196877615D+02  KE= 1.910212486072D+02
 D1PCM: PCM CHGder 1st derivatives, ID1Alg=3 FixD1E=F DoIter=F DoCFld=F I1PDM=0.
 Calling FoFJK, ICntrl=      2127 FMM=F ISym2X=0 I1Cent= 0 IOpClX= 0 NMat=1 NMatS=1 NMatT=0.
 ***** Axes restored to original set *****
 -------------------------------------------------------------------
 Center     Atomic                   Forces (Hartrees/Bohr)
 Number     Number              X              Y              Z
 -------------------------------------------------------------------
      1        6           0.008945668    0.040966439   -0.000872126
      2        1           0.012680193   -0.006483263   -0.007762384
      3        1          -0.006682044    0.007478502   -0.019182094
      4        1          -0.012395398   -0.004178302    0.006012623
      5        6          -0.119507853   -0.118057271    0.115258477
      6        6           0.006630203    0.053992839   -0.008558273
      7        1           0.015315330   -0.002206920   -0.009519692
      8        1           0.008587817    0.004281631    0.015593272
      9        1          -0.011128455   -0.013418919    0.000595629
     10        8           0.097554539    0.037625264   -0.091565433
 -------------------------------------------------------------------
 Cartesian Forces:  Max     0.119507853 RMS     0.047441479

 GradGradGradGradGradGradGradGradGradGradGradGradGradGradGradGradGradGrad
 Berny optimization.
 FormGI is forming the generalized inverse of G from B-inverse, IUseBI=4.
 Internal  Forces:  Max     0.133445311 RMS     0.027285485
 Search for a local minimum.
 Step number   1 out of a maximum of   46
 All quantities printed in internal units (Hartrees-Bohrs-Radians)
 Mixed Optimization -- RFO/linear search
 Second derivative matrix not updated -- first step.
 ITU=  0
     Eigenvalues ---    0.00237   0.00237   0.03682   0.07243   0.07243
     Eigenvalues ---    0.07243   0.07243   0.16000   0.16000   0.16000
     Eigenvalues ---    0.16000   0.16000   0.16000   0.16085   0.25000
     Eigenvalues ---    0.28519   0.28519   0.37230   0.37230   0.37230
     Eigenvalues ---    0.37230   0.37230   0.37230   0.40989
 RFO step:  Lambda=-8.58218225D-02 EMin= 2.36824125D-03
 Linear search not attempted -- first point.
 Maximum step size (   0.300) exceeded in Quadratic search.
    -- Step size scaled by   0.763
 Iteration  1 RMS(Cart)=  0.09297522 RMS(Int)=  0.00856873
 Iteration  2 RMS(Cart)=  0.00935575 RMS(Int)=  0.00501320
 Iteration  3 RMS(Cart)=  0.00003702 RMS(Int)=  0.00501308
 Iteration  4 RMS(Cart)=  0.00000048 RMS(Int)=  0.00501308
 Variable       Old X    -DE/DX   Delta X   Delta X   Delta X     New X
                                 (Linear)    (Quad)   (Total)
    R1        2.02201   0.01573   0.00000   0.02621   0.02621   2.04821
    R2        2.02201   0.02005   0.00000   0.03340   0.03340   2.05541
    R3        2.02201   0.01366   0.00000   0.02275   0.02275   2.04476
    R4        2.91018  -0.00086   0.00000  -0.00178  -0.00178   2.90840
    R5        2.91018  -0.00542   0.00000  -0.01115  -0.01115   2.89903
    R6        2.70231  -0.13345   0.00000  -0.20541  -0.20541   2.49690
    R7        2.02201   0.01764   0.00000   0.02938   0.02938   2.05138
    R8        2.02201   0.01761   0.00000   0.02933   0.02933   2.05134
    R9        2.02201   0.01551   0.00000   0.02584   0.02584   2.04784
    A1        1.91063  -0.00531   0.00000  -0.01595  -0.01602   1.89462
    A2        1.91063   0.00380   0.00000   0.01169   0.01164   1.92227
    A3        1.91063  -0.00092   0.00000  -0.00265  -0.00271   1.90792
    A4        1.91063  -0.00303   0.00000  -0.00984  -0.00965   1.90098
    A5        1.91063   0.01229   0.00000   0.03820   0.03826   1.94889
    A6        1.91063  -0.00683   0.00000  -0.02145  -0.02137   1.88926
    A7        1.91063   0.05165   0.00000   0.15980   0.14555   2.05618
    A8        1.91063   0.00423   0.00000   0.07471   0.05733   1.96796
    A9        1.91063   0.00072   0.00000   0.06386   0.04551   1.95614
   A10        1.91063   0.00761   0.00000   0.02501   0.02476   1.93540
   A11        1.91063   0.00844   0.00000   0.02775   0.02753   1.93817
   A12        1.91063  -0.01483   0.00000  -0.04898  -0.04877   1.86187
   A13        1.91063  -0.00373   0.00000  -0.00569  -0.00631   1.90433
   A14        1.91063   0.00136   0.00000   0.00112   0.00131   1.91194
   A15        1.91063   0.00116   0.00000   0.00079   0.00103   1.91166
    D1       -0.30600   0.01752   0.00000   0.10991   0.11251  -0.19349
    D2       -2.40039  -0.01759   0.00000  -0.11190  -0.11450  -2.51489
    D3       -2.40039   0.01706   0.00000   0.10768   0.11018  -2.29021
    D4        1.78840  -0.01805   0.00000  -0.11413  -0.11683   1.67156
    D5        1.78840   0.01743   0.00000   0.10947   0.11216   1.90056
    D6       -0.30600  -0.01768   0.00000  -0.11235  -0.11485  -0.42085
    D7        1.04682  -0.02056   0.00000  -0.12071  -0.12291   0.92391
    D8        3.14122  -0.01531   0.00000  -0.09537  -0.09691   3.04431
    D9       -1.04757  -0.01780   0.00000  -0.10741  -0.10931  -1.15688
   D10        3.14122   0.01670   0.00000   0.10775   0.10930  -3.03266
   D11       -1.04757   0.02195   0.00000   0.13309   0.13531  -0.91226
   D12        1.04682   0.01946   0.00000   0.12105   0.12291   1.16973
         Item               Value     Threshold  Converged?
 Maximum Force            0.133445     0.000450     NO 
 RMS     Force            0.027285     0.000300     NO 
 Maximum Displacement     0.249845     0.001800     NO 
 RMS     Displacement     0.091718     0.001200     NO 
 Predicted change in Energy=-5.160126D-02
 GradGradGradGradGradGradGradGradGradGradGradGradGradGradGradGradGradGrad

                          Input orientation:                          
 ---------------------------------------------------------------------
 Center     Atomic      Atomic             Coordinates (Angstroms)
 Number     Number       Type             X           Y           Z
 ---------------------------------------------------------------------
      1          6           0       -4.148790    0.107773   -0.034904
      2          1           0       -3.400844   -0.546513   -0.467638
      3          1           0       -4.390353    0.883337   -0.758219
      4          1           0       -5.046566   -0.451785    0.192483
      5          6           0       -3.606828    0.703119    1.276792
      6          6           0       -2.316280    0.107287    1.853795
      7          1           0       -1.526783    0.099216    1.108786
      8          1           0       -1.981274    0.668424    2.720544
      9          1           0       -2.547644   -0.909721    2.147919
     10          8           0       -4.542951    0.846506    2.198176
 ---------------------------------------------------------------------
                    Distance matrix (angstroms):
                    1          2          3          4          5
     1  C    0.000000
     2  H    1.083869   0.000000
     3  H    1.087674   1.762962   0.000000
     4  H    1.082041   1.775707   1.765503   0.000000
     5  C    1.539060   2.155700   2.188072   2.140648   0.000000
     6  C    2.631592   2.644387   3.424419   3.244530   1.534100
     7  H    2.860597   2.532623   3.507219   3.678598   2.172444
     8  H    3.550345   3.695369   4.236937   4.128192   2.174408
     9  H    2.892002   2.775069   3.880241   3.205938   2.117070
    10  O    2.384898   3.217371   2.960560   2.441719   1.321301
                    6          7          8          9         10
     6  C    0.000000
     7  H    1.085545   0.000000
     8  H    1.085522   1.768707   0.000000
     9  H    1.083672   1.771979   1.771784   0.000000
    10  O    2.371310   3.292793   2.620452   2.658592   0.000000
 Stoichiometry    C3H6O
 Framework group  C1[X(C3H6O)]
 Deg. of freedom    24
 Full point group                 C1      NOp   1
 Largest Abelian subgroup         C1      NOp   1
 Largest concise Abelian subgroup C1      NOp   1
                         Standard orientation:                         
 ---------------------------------------------------------------------
 Center     Atomic      Atomic             Coordinates (Angstroms)
 Number     Number       Type             X           Y           Z
 ---------------------------------------------------------------------
      1          6           0       -1.326418   -0.580272    0.042482
      2          1           0       -1.129142   -1.608196    0.323952
      3          1           0       -2.014433   -0.578063   -0.799936
      4          1           0       -1.780955   -0.048637    0.868056
      5          6           0        0.001174    0.115777   -0.306404
      6          6           0        1.304953   -0.614292    0.040904
      7          1           0        1.306787   -1.619434   -0.369088
      8          1           0        2.167024   -0.074327   -0.338083
      9          1           0        1.355137   -0.663724    1.122284
     10          8           0        0.027167    1.383138    0.066366
 ---------------------------------------------------------------------
 Rotational constants (GHZ):          10.2573976           8.0611200           4.8853573
 Standard basis: 6-31+G(d) (6D, 7F)
 There are    88 symmetry adapted cartesian basis functions of A   symmetry.
 There are    88 symmetry adapted basis functions of A   symmetry.
    88 basis functions,   152 primitive gaussians,    88 cartesian basis functions
    16 alpha electrons       16 beta electrons
       nuclear repulsion energy       117.3802804204 Hartrees.
 NAtoms=   10 NActive=   10 NUniq=   10 SFac= 1.00D+00 NAtFMM=   60 NAOKFM=F Big=F
 Integral buffers will be    131072 words long.
 Raffenetti 2 integral format.
 Two-electron integral symmetry is turned on.
 Nuclear repulsion after empirical dispersion term =      117.3704143642 Hartrees.
 ------------------------------------------------------------------------------
 Polarizable Continuum Model (PCM)
 =================================
 Model                : PCM.
 Atomic radii         : UFF (Universal Force Field).
 Polarization charges : Total charges.
 Charge compensation  : None.
 Solution method      : On-the-fly selection.
 Cavity type          : Scaled VdW (van der Waals Surface) (Alpha=1.100).
 Cavity algorithm     : GePol (No added spheres)
                        Default sphere list used, NSphG=   10.
                        Lebedev-Laikov grids with approx.  5.0 points / Ang**2.
                        Smoothing algorithm: York/Karplus (Gamma=1.0000).
                        Polarization charges: spherical gaussians, with
                                              point-specific exponents (IZeta= 3).
                        Self-potential: point-specific (ISelfS= 7).
                        Self-field    : sphere-specific E.n sum rule (ISelfD= 2).
 1st derivatives      : Analytical E(r).r(x)/FMM algorithm (CHGder, D1EAlg=3).
                        Cavity 1st derivative terms included.
 Solvent              : Water, Eps=  78.355300 Eps(inf)=   1.777849
 ------------------------------------------------------------------------------
 Spheres list:
 ISph  on   Nord     Re0    Alpha      Xe            Ye            Ze
    1   C      1    1.9255  1.100     -1.326418     -0.580272      0.042482
    2   H      2    1.4430  1.100     -1.129142     -1.608196      0.323952
    3   H      3    1.4430  1.100     -2.014433     -0.578063     -0.799936
    4   H      4    1.4430  1.100     -1.780955     -0.048637      0.868056
    5   C      5    1.9255  1.100      0.001174      0.115777     -0.306404
    6   C      6    1.9255  1.100      1.304953     -0.614292      0.040904
    7   H      7    1.4430  1.100      1.306787     -1.619434     -0.369088
    8   H      8    1.4430  1.100      2.167024     -0.074327     -0.338083
    9   H      9    1.4430  1.100      1.355137     -0.663724      1.122284
   10   O     10    1.7500  1.100      0.027167      1.383138      0.066366
 ------------------------------------------------------------------------------
 One-electron integrals computed using PRISM.
 NBasis=    88 RedAO= T EigKep=  1.80D-04  NBF=    88
 NBsUse=    88 1.00D-06 EigRej= -1.00D+00 NBFU=    88
 Initial guess from the checkpoint file:  "acetone.chk"
 B after Tr=    -0.000000   -0.000000    0.000000
         Rot=    0.999969   -0.001322    0.000570    0.007723 Ang=  -0.90 deg.
 ExpMin= 4.38D-02 ExpMax= 5.48D+03 ExpMxC= 8.25D+02 IAcc=3 IRadAn=         5 AccDes= 0.00D+00
 Harris functional with IExCor=  402 and IRadAn=       5 diagonalized for initial guess.
 HarFok:  IExCor=  402 AccDes= 0.00D+00 IRadAn=         5 IDoV= 1 UseB2=F ITyADJ=14
 ICtDFT=  3500011 ScaDFX=  1.000000  1.000000  1.000000  1.000000
 FoFCou: FMM=F IPFlag=           0 FMFlag=      100000 FMFlg1=           0
         NFxFlg=           0 DoJE=T BraDBF=F KetDBF=T FulRan=T
         wScrn=  0.000000 ICntrl=       500 IOpCl=  0 I1Cent=   200000004 NGrid=           0
         NMat0=    1 NMatS0=      1 NMatT0=    0 NMatD0=    1 NMtDS0=    0 NMtDT0=    0
 Petite list used in FoFCou.
 Keep R1 ints in memory in canonical form, NReq=22295982.
 Requested convergence on RMS density matrix=1.00D-08 within 128 cycles.
 Requested convergence on MAX density matrix=1.00D-06.
 Requested convergence on             energy=1.00D-06.
 No special actions if energy rises.
 Inv3:  Mode=1 IEnd=     2495232.
 Iteration    1 A*A^-1 deviation from unit magnitude is 2.89D-15 for    887.
 Iteration    1 A*A^-1 deviation from orthogonality  is 1.32D-15 for    908    319.
 Iteration    1 A^-1*A deviation from unit magnitude is 2.89D-15 for    887.
 Iteration    1 A^-1*A deviation from orthogonality  is 1.11D-15 for    912    910.
 Error on total polarization charges =  0.01122
 SCF Done:  E(RB3LYP) =  -193.141494833     A.U. after   11 cycles
            NFock= 11  Conv=0.55D-08     -V/T= 2.0108
 D1PCM: PCM CHGder 1st derivatives, ID1Alg=3 FixD1E=F DoIter=F DoCFld=F I1PDM=0.
 Calling FoFJK, ICntrl=      2127 FMM=F ISym2X=0 I1Cent= 0 IOpClX= 0 NMat=1 NMatS=1 NMatT=0.
 ***** Axes restored to original set *****
 -------------------------------------------------------------------
 Center     Atomic                   Forces (Hartrees/Bohr)
 Number     Number              X              Y              Z
 -------------------------------------------------------------------
      1        6           0.017684051    0.025819269   -0.001442552
      2        1           0.004487453   -0.003219430   -0.004818826
      3        1          -0.001782370    0.003034160   -0.005702229
      4        1          -0.005040368   -0.001306293    0.002900253
      5        6          -0.089037325   -0.075488352    0.087183061
      6        6           0.007338198    0.034514382   -0.018913943
      7        1           0.006818600   -0.002770181   -0.002570686
      8        1           0.000567748    0.001449779    0.005156965
      9        1          -0.003975737   -0.006444076   -0.000043930
     10        8           0.062939749    0.024410740   -0.061748112
 -------------------------------------------------------------------
 Cartesian Forces:  Max     0.089037325 RMS     0.032895132

 GradGradGradGradGradGradGradGradGradGradGradGradGradGradGradGradGradGrad
 Berny optimization.
 Using GEDIIS/GDIIS optimizer.
 FormGI is forming the generalized inverse of G from B-inverse, IUseBI=4.
 Internal  Forces:  Max     0.085003139 RMS     0.016525584
 Search for a local minimum.
 Step number   2 out of a maximum of   46
 All quantities printed in internal units (Hartrees-Bohrs-Radians)
 Mixed Optimization -- RFO/linear search
 Update second derivatives using D2CorX and points    1    2
 DE= -5.26D-02 DEPred=-5.16D-02 R= 1.02D+00
 TightC=F SS=  1.41D+00  RLast= 4.89D-01 DXNew= 5.0454D-01 1.4664D+00
 Trust test= 1.02D+00 RLast= 4.89D-01 DXMaxT set to 5.05D-01
 ITU=  1  0
 Use linear search instead of GDIIS.
     Eigenvalues ---    0.00237   0.00237   0.02927   0.06959   0.07034
     Eigenvalues ---    0.07333   0.07470   0.15596   0.16000   0.16000
     Eigenvalues ---    0.16000   0.16000   0.16424   0.19440   0.22592
     Eigenvalues ---    0.28143   0.28550   0.31303   0.37230   0.37230
     Eigenvalues ---    0.37230   0.37230   0.37249   0.38762
 RFO step:  Lambda=-1.52455093D-02 EMin= 2.36812855D-03
 Quartic linear search produced a step of  1.10186.
 Iteration  1 RMS(Cart)=  0.07292507 RMS(Int)=  0.03120433
 Iteration  2 RMS(Cart)=  0.02812284 RMS(Int)=  0.01188668
 Iteration  3 RMS(Cart)=  0.00021118 RMS(Int)=  0.01188159
 Iteration  4 RMS(Cart)=  0.00000485 RMS(Int)=  0.01188159
 Iteration  5 RMS(Cart)=  0.00000006 RMS(Int)=  0.01188159
 Variable       Old X    -DE/DX   Delta X   Delta X   Delta X     New X
                                 (Linear)    (Quad)   (Total)
    R1        2.04821   0.00697   0.02888  -0.00473   0.02414   2.07236
    R2        2.05541   0.00635   0.03680  -0.01954   0.01726   2.07267
    R3        2.04476   0.00547   0.02507  -0.00722   0.01785   2.06261
    R4        2.90840  -0.00709  -0.00196  -0.04587  -0.04783   2.86057
    R5        2.89903  -0.00751  -0.01229  -0.03274  -0.04502   2.85400
    R6        2.49690  -0.08500  -0.22634  -0.09202  -0.31835   2.17854
    R7        2.05138   0.00674   0.03237  -0.01101   0.02136   2.07274
    R8        2.05134   0.00504   0.03232  -0.02003   0.01230   2.06364
    R9        2.04784   0.00689   0.02847  -0.00457   0.02390   2.07174
    A1        1.89462  -0.00245  -0.01765   0.00585  -0.01192   1.88269
    A2        1.92227   0.00122   0.01283  -0.00391   0.00901   1.93128
    A3        1.90792   0.00247  -0.00298   0.03850   0.03550   1.94342
    A4        1.90098  -0.00041  -0.01063   0.00739  -0.00327   1.89771
    A5        1.94889   0.00291   0.04216  -0.04660  -0.00452   1.94437
    A6        1.88926  -0.00371  -0.02355  -0.00135  -0.02486   1.86440
    A7        2.05618   0.00608   0.16037  -0.12264  -0.00169   2.05449
    A8        1.96796   0.00719   0.06317   0.08309   0.10493   2.07290
    A9        1.95614   0.00730   0.05014   0.10501   0.11359   2.06973
   A10        1.93540   0.00664   0.02729   0.03347   0.06058   1.99598
   A11        1.93817   0.00015   0.03034  -0.05293  -0.02331   1.91486
   A12        1.86187  -0.00609  -0.05373   0.02075  -0.03286   1.82901
   A13        1.90433  -0.00078  -0.00695   0.01782   0.01001   1.91434
   A14        1.91194  -0.00109   0.00144  -0.01829  -0.01618   1.89576
   A15        1.91166   0.00104   0.00113  -0.00130  -0.00067   1.91099
    D1       -0.19349   0.01278   0.12398   0.07060   0.19755   0.00406
    D2       -2.51489  -0.01304  -0.12616  -0.05430  -0.18326  -2.69815
    D3       -2.29021   0.01235   0.12140   0.06741   0.19166  -2.09856
    D4        1.67156  -0.01347  -0.12873  -0.05749  -0.18915   1.48241
    D5        1.90056   0.01348   0.12359   0.08751   0.21394   2.11449
    D6       -0.42085  -0.01234  -0.12655  -0.03739  -0.16687  -0.58772
    D7        0.92391  -0.01392  -0.13543  -0.05412  -0.19272   0.73119
    D8        3.04431  -0.01025  -0.10678  -0.04470  -0.15395   2.89036
    D9       -1.15688  -0.01262  -0.12044  -0.06324  -0.18577  -1.34265
   D10       -3.03266   0.01169   0.12044   0.06127   0.18369  -2.84897
   D11       -0.91226   0.01535   0.14909   0.07069   0.22247  -0.68979
   D12        1.16973   0.01299   0.13543   0.05216   0.19065   1.36038
         Item               Value     Threshold  Converged?
 Maximum Force            0.085003     0.000450     NO 
 RMS     Force            0.016526     0.000300     NO 
 Maximum Displacement     0.238468     0.001800     NO 
 RMS     Displacement     0.080117     0.001200     NO 
 Predicted change in Energy=-3.934406D-02
 GradGradGradGradGradGradGradGradGradGradGradGradGradGradGradGradGradGrad

                          Input orientation:                          
 ---------------------------------------------------------------------
 Center     Atomic      Atomic             Coordinates (Angstroms)
 Number     Number       Type             X           Y           Z
 ---------------------------------------------------------------------
      1          6           0       -4.144547    0.094407   -0.007429
      2          1           0       -3.400118   -0.563769   -0.471391
      3          1           0       -4.324142    0.933563   -0.690474
      4          1           0       -5.084660   -0.437648    0.148925
      5          6           0       -3.683067    0.576927    1.351116
      6          6           0       -2.332804    0.110143    1.840840
      7          1           0       -1.548149    0.111972    1.074425
      8          1           0       -2.018329    0.719598    2.690661
      9          1           0       -2.496543   -0.922159    2.171683
     10          8           0       -4.475956    0.884608    2.129377
 ---------------------------------------------------------------------
                    Distance matrix (angstroms):
                    1          2          3          4          5
     1  C    0.000000
     2  H    1.096645   0.000000
     3  H    1.096807   1.773082   0.000000
     4  H    1.091486   1.799550   1.778538   0.000000
     5  C    1.513749   2.168589   2.169391   2.106914   0.000000
     6  C    2.588196   2.634336   3.324304   3.276486   1.510274
     7  H    2.812827   2.505186   3.390577   3.696693   2.202411
     8  H    3.491613   3.681704   4.098126   4.147533   2.141516
     9  H    2.915109   2.816156   3.869854   3.320339   2.080488
    10  O    2.302214   3.165315   2.824360   2.457859   1.152835
                    6          7          8          9         10
     6  C    0.000000
     7  H    1.096849   0.000000
     8  H    1.092029   1.789553   0.000000
     9  H    1.096320   1.781251   1.787007   0.000000
    10  O    2.296987   3.206547   2.526302   2.680349   0.000000
 Stoichiometry    C3H6O
 Framework group  C1[X(C3H6O)]
 Deg. of freedom    24
 Full point group                 C1      NOp   1
 Largest Abelian subgroup         C1      NOp   1
 Largest concise Abelian subgroup C1      NOp   1
                         Standard orientation:                         
 ---------------------------------------------------------------------
 Center     Atomic      Atomic             Coordinates (Angstroms)
 Number     Number       Type             X           Y           Z
 ---------------------------------------------------------------------
      1          6           0       -1.297930   -0.578538    0.018942
      2          1           0       -1.117216   -1.633618    0.257227
      3          1           0       -1.908126   -0.538860   -0.891592
      4          1           0       -1.843219   -0.089072    0.827907
      5          6           0        0.001850    0.177905   -0.153690
      6          6           0        1.290224   -0.592261    0.013230
      7          1           0        1.285893   -1.586919   -0.449063
      8          1           0        2.123180   -0.006761   -0.381612
      9          1           0        1.407357   -0.710421    1.096851
     10          8           0        0.010909    1.315377    0.033674
 ---------------------------------------------------------------------
 Rotational constants (GHZ):          11.1341211           8.3983535           5.1195392
 Standard basis: 6-31+G(d) (6D, 7F)
 There are    88 symmetry adapted cartesian basis functions of A   symmetry.
 There are    88 symmetry adapted basis functions of A   symmetry.
    88 basis functions,   152 primitive gaussians,    88 cartesian basis functions
    16 alpha electrons       16 beta electrons
       nuclear repulsion energy       121.5306649761 Hartrees.
 NAtoms=   10 NActive=   10 NUniq=   10 SFac= 1.00D+00 NAtFMM=   60 NAOKFM=F Big=F
 Integral buffers will be    131072 words long.
 Raffenetti 2 integral format.
 Two-electron integral symmetry is turned on.
 Nuclear repulsion after empirical dispersion term =      121.5207159445 Hartrees.
 ------------------------------------------------------------------------------
 Polarizable Continuum Model (PCM)
 =================================
 Model                : PCM.
 Atomic radii         : UFF (Universal Force Field).
 Polarization charges : Total charges.
 Charge compensation  : None.
 Solution method      : On-the-fly selection.
 Cavity type          : Scaled VdW (van der Waals Surface) (Alpha=1.100).
 Cavity algorithm     : GePol (No added spheres)
                        Default sphere list used, NSphG=   10.
                        Lebedev-Laikov grids with approx.  5.0 points / Ang**2.
                        Smoothing algorithm: York/Karplus (Gamma=1.0000).
                        Polarization charges: spherical gaussians, with
                                              point-specific exponents (IZeta= 3).
                        Self-potential: point-specific (ISelfS= 7).
                        Self-field    : sphere-specific E.n sum rule (ISelfD= 2).
 1st derivatives      : Analytical E(r).r(x)/FMM algorithm (CHGder, D1EAlg=3).
                        Cavity 1st derivative terms included.
 Solvent              : Water, Eps=  78.355300 Eps(inf)=   1.777849
 ------------------------------------------------------------------------------
 Spheres list:
 ISph  on   Nord     Re0    Alpha      Xe            Ye            Ze
    1   C      1    1.9255  1.100     -1.297930     -0.578538      0.018942
    2   H      2    1.4430  1.100     -1.117216     -1.633618      0.257227
    3   H      3    1.4430  1.100     -1.908126     -0.538860     -0.891592
    4   H      4    1.4430  1.100     -1.843219     -0.089072      0.827907
    5   C      5    1.9255  1.100      0.001850      0.177905     -0.153690
    6   C      6    1.9255  1.100      1.290224     -0.592261      0.013230
    7   H      7    1.4430  1.100      1.285893     -1.586919     -0.449063
    8   H      8    1.4430  1.100      2.123180     -0.006761     -0.381612
    9   H      9    1.4430  1.100      1.407357     -0.710421      1.096851
   10   O     10    1.7500  1.100      0.010909      1.315377      0.033674
 ------------------------------------------------------------------------------
 One-electron integrals computed using PRISM.
 NBasis=    88 RedAO= T EigKep=  1.96D-04  NBF=    88
 NBsUse=    88 1.00D-06 EigRej= -1.00D+00 NBFU=    88
 Initial guess from the checkpoint file:  "acetone.chk"
 B after Tr=    -0.000000    0.000000   -0.000000
         Rot=    0.999941   -0.009684    0.001530   -0.004779 Ang=  -1.25 deg.
 ExpMin= 4.38D-02 ExpMax= 5.48D+03 ExpMxC= 8.25D+02 IAcc=3 IRadAn=         5 AccDes= 0.00D+00
 Harris functional with IExCor=  402 and IRadAn=       5 diagonalized for initial guess.
 HarFok:  IExCor=  402 AccDes= 0.00D+00 IRadAn=         5 IDoV= 1 UseB2=F ITyADJ=14
 ICtDFT=  3500011 ScaDFX=  1.000000  1.000000  1.000000  1.000000
 FoFCou: FMM=F IPFlag=           0 FMFlag=      100000 FMFlg1=           0
         NFxFlg=           0 DoJE=T BraDBF=F KetDBF=T FulRan=T
         wScrn=  0.000000 ICntrl=       500 IOpCl=  0 I1Cent=   200000004 NGrid=           0
         NMat0=    1 NMatS0=      1 NMatT0=    0 NMatD0=    1 NMtDS0=    0 NMtDT0=    0
 Petite list used in FoFCou.
 Keep R1 ints in memory in canonical form, NReq=22295982.
 Requested convergence on RMS density matrix=1.00D-08 within 128 cycles.
 Requested convergence on MAX density matrix=1.00D-06.
 Requested convergence on             energy=1.00D-06.
 No special actions if energy rises.
 Inv3:  Mode=1 IEnd=     2550252.
 Iteration    1 A*A^-1 deviation from unit magnitude is 3.33D-15 for    921.
 Iteration    1 A*A^-1 deviation from orthogonality  is 1.72D-15 for    819    367.
 Iteration    1 A^-1*A deviation from unit magnitude is 3.33D-15 for    903.
 Iteration    1 A^-1*A deviation from orthogonality  is 1.62D-15 for    916    773.
 Error on total polarization charges =  0.01134
 SCF Done:  E(RB3LYP) =  -193.163675083     A.U. after   12 cycles
            NFock= 12  Conv=0.45D-08     -V/T= 2.0080
 D1PCM: PCM CHGder 1st derivatives, ID1Alg=3 FixD1E=F DoIter=F DoCFld=F I1PDM=0.
 Calling FoFJK, ICntrl=      2127 FMM=F ISym2X=0 I1Cent= 0 IOpClX= 0 NMat=1 NMatS=1 NMatT=0.
 ***** Axes restored to original set *****
 -------------------------------------------------------------------
 Center     Atomic                   Forces (Hartrees/Bohr)
 Number     Number              X              Y              Z
 -------------------------------------------------------------------
      1        6           0.009361688    0.006204535   -0.015172225
      2        1          -0.002565565    0.000492917   -0.000554726
      3        1          -0.000861621    0.000139057   -0.000332713
      4        1          -0.001171134   -0.000576609   -0.002263783
      5        6           0.074093458   -0.076808028   -0.073293472
      6        6           0.016397353    0.011935312   -0.007175373
      7        1          -0.001314914   -0.000754776    0.000985019
      8        1           0.001145568   -0.001599598    0.002292451
      9        1           0.001772828   -0.000776729    0.000190009
     10        8          -0.096857661    0.061743919    0.095324813
 -------------------------------------------------------------------
 Cartesian Forces:  Max     0.096857661 RMS     0.036465482

 GradGradGradGradGradGradGradGradGradGradGradGradGradGradGradGradGradGrad
 Berny optimization.
 Using GEDIIS/GDIIS optimizer.
 FormGI is forming the generalized inverse of G from B-inverse, IUseBI=4.
 Internal  Forces:  Max     0.147447289 RMS     0.025163307
 Search for a local minimum.
 Step number   3 out of a maximum of   46
 All quantities printed in internal units (Hartrees-Bohrs-Radians)
 Mixed Optimization -- RFO/linear search
 Update second derivatives using D2CorX and points    2    3
 DE= -2.22D-02 DEPred=-3.93D-02 R= 5.64D-01
 TightC=F SS=  1.41D+00  RLast= 7.57D-01 DXNew= 8.4853D-01 2.2717D+00
 Trust test= 5.64D-01 RLast= 7.57D-01 DXMaxT set to 8.49D-01
 ITU=  1  1  0
 Use linear search instead of GDIIS.
     Eigenvalues ---    0.00237   0.00237   0.01107   0.06637   0.06920
     Eigenvalues ---    0.07386   0.07676   0.15841   0.16000   0.16000
     Eigenvalues ---    0.16000   0.16033   0.16415   0.22775   0.28009
     Eigenvalues ---    0.28530   0.30118   0.37124   0.37230   0.37230
     Eigenvalues ---    0.37230   0.37231   0.38388   0.68397
 RFO step:  Lambda=-4.49943451D-02 EMin= 2.36736174D-03
 Quartic linear search produced a step of -0.24436.
 Iteration  1 RMS(Cart)=  0.09105218 RMS(Int)=  0.00679338
 Iteration  2 RMS(Cart)=  0.00881061 RMS(Int)=  0.00384923
 Iteration  3 RMS(Cart)=  0.00002010 RMS(Int)=  0.00384919
 Iteration  4 RMS(Cart)=  0.00000003 RMS(Int)=  0.00384919
 Variable       Old X    -DE/DX   Delta X   Delta X   Delta X     New X
                                 (Linear)    (Quad)   (Total)
    R1        2.07236  -0.00180  -0.00590  -0.00532  -0.01122   2.06114
    R2        2.07267   0.00046  -0.00422  -0.00814  -0.01235   2.06031
    R3        2.06261   0.00096  -0.00436  -0.00250  -0.00686   2.05575
    R4        2.86057   0.01300   0.01169   0.00442   0.01611   2.87668
    R5        2.85400   0.01217   0.01100   0.00797   0.01898   2.87298
    R6        2.17854   0.14745   0.07779   0.15299   0.23078   2.40932
    R7        2.07274  -0.00163  -0.00522  -0.00753  -0.01275   2.05999
    R8        2.06364   0.00122  -0.00300  -0.00713  -0.01013   2.05350
    R9        2.07174   0.00053  -0.00584  -0.00225  -0.00810   2.06365
    A1        1.88269  -0.00087   0.00291  -0.00107   0.00190   1.88459
    A2        1.93128  -0.00218  -0.00220  -0.00524  -0.00756   1.92372
    A3        1.94342   0.00244  -0.00867   0.02109   0.01239   1.95581
    A4        1.89771  -0.00185   0.00080  -0.00467  -0.00378   1.89393
    A5        1.94437  -0.00054   0.00110  -0.01545  -0.01428   1.93009
    A6        1.86440   0.00287   0.00608   0.00464   0.01070   1.87509
    A7        2.05449  -0.00588   0.00041  -0.00488  -0.01778   2.03672
    A8        2.07290   0.00567  -0.02564   0.08668   0.04769   2.12058
    A9        2.06973   0.00544  -0.02776   0.09390   0.05284   2.12257
   A10        1.99598  -0.00076  -0.01480   0.01409  -0.00073   1.99525
   A11        1.91486   0.00291   0.00570  -0.00719  -0.00139   1.91347
   A12        1.82901   0.00187   0.00803   0.00480   0.01286   1.84186
   A13        1.91434  -0.00034  -0.00245   0.01018   0.00779   1.92213
   A14        1.89576  -0.00153   0.00395  -0.01430  -0.01045   1.88531
   A15        1.91099  -0.00227   0.00016  -0.00910  -0.00874   1.90225
    D1        0.00406   0.00688  -0.04827   0.22513   0.17680   0.18086
    D2       -2.69815  -0.00705   0.04478  -0.22122  -0.17652  -2.87468
    D3       -2.09856   0.00669  -0.04683   0.22261   0.17578  -1.92278
    D4        1.48241  -0.00724   0.04622  -0.22373  -0.17754   1.30487
    D5        2.11449   0.00748  -0.05228   0.23405   0.18187   2.29636
    D6       -0.58772  -0.00645   0.04078  -0.21230  -0.17145  -0.75917
    D7        0.73119  -0.00723   0.04709  -0.21577  -0.16895   0.56224
    D8        2.89036  -0.00594   0.03762  -0.19764  -0.16029   2.73008
    D9       -1.34265  -0.00617   0.04539  -0.20915  -0.16422  -1.50686
   D10       -2.84897   0.00675  -0.04489   0.22795   0.18346  -2.66551
   D11       -0.68979   0.00803  -0.05436   0.24609   0.19212  -0.49768
   D12        1.36038   0.00781  -0.04659   0.23457   0.18819   1.54857
         Item               Value     Threshold  Converged?
 Maximum Force            0.147447     0.000450     NO 
 RMS     Force            0.025163     0.000300     NO 
 Maximum Displacement     0.211944     0.001800     NO 
 RMS     Displacement     0.092480     0.001200     NO 
 Predicted change in Energy=-3.514727D-02
 GradGradGradGradGradGradGradGradGradGradGradGradGradGradGradGradGradGrad

                          Input orientation:                          
 ---------------------------------------------------------------------
 Center     Atomic      Atomic             Coordinates (Angstroms)
 Number     Number       Type             X           Y           Z
 ---------------------------------------------------------------------
      1          6           0       -4.138646    0.073721   -0.014209
      2          1           0       -3.409350   -0.590010   -0.480288
      3          1           0       -4.238281    0.958815   -0.642993
      4          1           0       -5.107671   -0.416749    0.047906
      5          6           0       -3.733875    0.464771    1.400200
      6          6           0       -2.324234    0.095751    1.833899
      7          1           0       -1.589160    0.108226    1.029019
      8          1           0       -2.006928    0.751352    2.640342
      9          1           0       -2.392968   -0.926124    2.212832
     10          8           0       -4.567201    0.987889    2.211024
 ---------------------------------------------------------------------
                    Distance matrix (angstroms):
                    1          2          3          4          5
     1  C    0.000000
     2  H    1.090707   0.000000
     3  H    1.090270   1.764216   0.000000
     4  H    1.087855   1.786981   1.767868   0.000000
     5  C    1.522271   2.180393   2.161745   2.119691   0.000000
     6  C    2.589996   2.646357   3.247068   3.346632   1.520316
     7  H    2.754885   2.465488   3.246070   3.690271   2.205608
     8  H    3.471317   3.674829   3.975207   4.207112   2.145327
     9  H    3.001132   2.898086   3.887662   3.509413   2.095947
    10  O    2.443567   3.327693   2.873056   2.635184   1.274959
                    6          7          8          9         10
     6  C    0.000000
     7  H    1.090102   0.000000
     8  H    1.086667   1.784518   0.000000
     9  H    1.092036   1.765616   1.773616   0.000000
    10  O    2.443161   3.322600   2.606772   2.896678   0.000000
 Stoichiometry    C3H6O
 Framework group  C1[X(C3H6O)]
 Deg. of freedom    24
 Full point group                 C1      NOp   1
 Largest Abelian subgroup         C1      NOp   1
 Largest concise Abelian subgroup C1      NOp   1
                         Standard orientation:                         
 ---------------------------------------------------------------------
 Center     Atomic      Atomic             Coordinates (Angstroms)
 Number     Number       Type             X           Y           Z
 ---------------------------------------------------------------------
      1          6           0       -1.295546   -0.631521    0.004214
      2          1           0       -1.123625   -1.684394    0.231242
      3          1           0       -1.809151   -0.573753   -0.955765
      4          1           0       -1.931477   -0.182049    0.763817
      5          6           0        0.001566    0.164313   -0.033971
      6          6           0        1.294437   -0.634997   -0.003166
      7          1           0        1.232473   -1.607897   -0.490965
      8          1           0        2.097289   -0.047747   -0.440673
      9          1           0        1.510777   -0.800477    1.054357
     10          8           0        0.002621    1.438693    0.004440
 ---------------------------------------------------------------------
 Rotational constants (GHZ):           9.6698008           8.4259564           4.7690096
 Standard basis: 6-31+G(d) (6D, 7F)
 There are    88 symmetry adapted cartesian basis functions of A   symmetry.
 There are    88 symmetry adapted basis functions of A   symmetry.
    88 basis functions,   152 primitive gaussians,    88 cartesian basis functions
    16 alpha electrons       16 beta electrons
       nuclear repulsion energy       117.6021153139 Hartrees.
 NAtoms=   10 NActive=   10 NUniq=   10 SFac= 1.00D+00 NAtFMM=   60 NAOKFM=F Big=F
 Integral buffers will be    131072 words long.
 Raffenetti 2 integral format.
 Two-electron integral symmetry is turned on.
 Nuclear repulsion after empirical dispersion term =      117.5922921197 Hartrees.
 ------------------------------------------------------------------------------
 Polarizable Continuum Model (PCM)
 =================================
 Model                : PCM.
 Atomic radii         : UFF (Universal Force Field).
 Polarization charges : Total charges.
 Charge compensation  : None.
 Solution method      : On-the-fly selection.
 Cavity type          : Scaled VdW (van der Waals Surface) (Alpha=1.100).
 Cavity algorithm     : GePol (No added spheres)
                        Default sphere list used, NSphG=   10.
                        Lebedev-Laikov grids with approx.  5.0 points / Ang**2.
                        Smoothing algorithm: York/Karplus (Gamma=1.0000).
                        Polarization charges: spherical gaussians, with
                                              point-specific exponents (IZeta= 3).
                        Self-potential: point-specific (ISelfS= 7).
                        Self-field    : sphere-specific E.n sum rule (ISelfD= 2).
 1st derivatives      : Analytical E(r).r(x)/FMM algorithm (CHGder, D1EAlg=3).
                        Cavity 1st derivative terms included.
 Solvent              : Water, Eps=  78.355300 Eps(inf)=   1.777849
 ------------------------------------------------------------------------------
 Spheres list:
 ISph  on   Nord     Re0    Alpha      Xe            Ye            Ze
    1   C      1    1.9255  1.100     -1.295546     -0.631521      0.004214
    2   H      2    1.4430  1.100     -1.123625     -1.684394      0.231242
    3   H      3    1.4430  1.100     -1.809151     -0.573753     -0.955765
    4   H      4    1.4430  1.100     -1.931477     -0.182049      0.763817
    5   C      5    1.9255  1.100      0.001566      0.164313     -0.033971
    6   C      6    1.9255  1.100      1.294437     -0.634997     -0.003166
    7   H      7    1.4430  1.100      1.232473     -1.607897     -0.490965
    8   H      8    1.4430  1.100      2.097289     -0.047747     -0.440673
    9   H      9    1.4430  1.100      1.510777     -0.800477      1.054357
   10   O     10    1.7500  1.100      0.002621      1.438693      0.004440
 ------------------------------------------------------------------------------
 One-electron integrals computed using PRISM.
 NBasis=    88 RedAO= T EigKep=  1.88D-04  NBF=    88
 NBsUse=    88 1.00D-06 EigRej= -1.00D+00 NBFU=    88
 Initial guess from the checkpoint file:  "acetone.chk"
 B after Tr=    -0.000000    0.000000    0.000000
         Rot=    0.999991   -0.003536    0.000429   -0.002245 Ang=  -0.48 deg.
 ExpMin= 4.38D-02 ExpMax= 5.48D+03 ExpMxC= 8.25D+02 IAcc=3 IRadAn=         5 AccDes= 0.00D+00
 Harris functional with IExCor=  402 and IRadAn=       5 diagonalized for initial guess.
 HarFok:  IExCor=  402 AccDes= 0.00D+00 IRadAn=         5 IDoV= 1 UseB2=F ITyADJ=14
 ICtDFT=  3500011 ScaDFX=  1.000000  1.000000  1.000000  1.000000
 FoFCou: FMM=F IPFlag=           0 FMFlag=      100000 FMFlg1=           0
         NFxFlg=           0 DoJE=T BraDBF=F KetDBF=T FulRan=T
         wScrn=  0.000000 ICntrl=       500 IOpCl=  0 I1Cent=   200000004 NGrid=           0
         NMat0=    1 NMatS0=      1 NMatT0=    0 NMatD0=    1 NMtDS0=    0 NMtDT0=    0
 Petite list used in FoFCou.
 Keep R1 ints in memory in canonical form, NReq=22295982.
 Requested convergence on RMS density matrix=1.00D-08 within 128 cycles.
 Requested convergence on MAX density matrix=1.00D-06.
 Requested convergence on             energy=1.00D-06.
 No special actions if energy rises.
 Inv3:  Mode=1 IEnd=     2566875.
 Iteration    1 A*A^-1 deviation from unit magnitude is 2.89D-15 for    323.
 Iteration    1 A*A^-1 deviation from orthogonality  is 2.61D-15 for    918    779.
 Iteration    1 A^-1*A deviation from unit magnitude is 2.66D-15 for     81.
 Iteration    1 A^-1*A deviation from orthogonality  is 1.22D-15 for    909    842.
 Error on total polarization charges =  0.01123
 SCF Done:  E(RB3LYP) =  -193.177996322     A.U. after   12 cycles
            NFock= 12  Conv=0.29D-08     -V/T= 2.0107
 D1PCM: PCM CHGder 1st derivatives, ID1Alg=3 FixD1E=F DoIter=F DoCFld=F I1PDM=0.
 Calling FoFJK, ICntrl=      2127 FMM=F ISym2X=0 I1Cent= 0 IOpClX= 0 NMat=1 NMatS=1 NMatT=0.
 ***** Axes restored to original set *****
 -------------------------------------------------------------------
 Center     Atomic                   Forces (Hartrees/Bohr)
 Number     Number              X              Y              Z
 -------------------------------------------------------------------
      1        6           0.000518139    0.000718337    0.011238982
      2        1           0.000802597   -0.001364229    0.000457931
      3        1          -0.000876772    0.004720931   -0.000803661
      4        1          -0.004788708   -0.001588841   -0.003247898
      5        6          -0.029573409    0.016438666    0.028455133
      6        6          -0.011432531    0.008293768    0.002189861
      7        1          -0.001527797    0.000680100   -0.003710958
      8        1           0.002230901    0.000794118    0.004651128
      9        1           0.002223478   -0.004708454    0.001973362
     10        8           0.042424104   -0.023984395   -0.041203879
 -------------------------------------------------------------------
 Cartesian Forces:  Max     0.042424104 RMS     0.014715013

 GradGradGradGradGradGradGradGradGradGradGradGradGradGradGradGradGradGrad
 Berny optimization.
 Using GEDIIS/GDIIS optimizer.
 FormGI is forming the generalized inverse of G from B-inverse, IUseBI=4.
 Internal  Forces:  Max     0.063773939 RMS     0.011226084
 Search for a local minimum.
 Step number   4 out of a maximum of   46
 All quantities printed in internal units (Hartrees-Bohrs-Radians)
 Mixed Optimization -- RFO/linear search
 Update second derivatives using D2CorX and points    3    4
 DE= -1.43D-02 DEPred=-3.51D-02 R= 4.07D-01
 Trust test= 4.07D-01 RLast= 6.60D-01 DXMaxT set to 8.49D-01
 ITU=  0  1  1  0
 Use linear search instead of GDIIS.
     Eigenvalues ---    0.00237   0.00237   0.01061   0.06616   0.06889
     Eigenvalues ---    0.07349   0.07622   0.15797   0.15959   0.16000
     Eigenvalues ---    0.16000   0.16001   0.16430   0.24890   0.27936
     Eigenvalues ---    0.28533   0.30167   0.37143   0.37203   0.37230
     Eigenvalues ---    0.37230   0.37230   0.38335   0.79230
 RFO step:  Lambda=-1.66737815D-03 EMin= 2.36617437D-03
 Quartic linear search produced a step of -0.28811.
 Iteration  1 RMS(Cart)=  0.06445930 RMS(Int)=  0.00279728
 Iteration  2 RMS(Cart)=  0.00242545 RMS(Int)=  0.00153991
 Iteration  3 RMS(Cart)=  0.00000331 RMS(Int)=  0.00153991
 Iteration  4 RMS(Cart)=  0.00000000 RMS(Int)=  0.00153991
 Variable       Old X    -DE/DX   Delta X   Delta X   Delta X     New X
                                 (Linear)    (Quad)   (Total)
    R1        2.06114   0.00117   0.00323  -0.00072   0.00252   2.06365
    R2        2.06031   0.00438   0.00356   0.00526   0.00882   2.06913
    R3        2.05575   0.00480   0.00198   0.00805   0.01003   2.06578
    R4        2.87668  -0.00659  -0.00464  -0.00860  -0.01324   2.86343
    R5        2.87298  -0.00766  -0.00547  -0.01033  -0.01580   2.85718
    R6        2.40932  -0.06377  -0.06649  -0.01519  -0.08168   2.32764
    R7        2.05999   0.00172   0.00367  -0.00028   0.00339   2.06338
    R8        2.05350   0.00458   0.00292   0.00634   0.00926   2.06276
    R9        2.06365   0.00495   0.00233   0.00813   0.01046   2.07411
    A1        1.88459   0.00191  -0.00055   0.00565   0.00502   1.88962
    A2        1.92372  -0.00125   0.00218  -0.00470  -0.00264   1.92108
    A3        1.95581  -0.00123  -0.00357   0.00299  -0.00069   1.95512
    A4        1.89393  -0.00155   0.00109  -0.01084  -0.00960   1.88433
    A5        1.93009  -0.00358   0.00411  -0.02618  -0.02204   1.90805
    A6        1.87509   0.00559  -0.00308   0.03224   0.02916   1.90426
    A7        2.03672   0.00924   0.00512   0.00364   0.01407   2.05079
    A8        2.12058  -0.00453  -0.01374   0.00153  -0.00687   2.11371
    A9        2.12257  -0.00457  -0.01522   0.00352  -0.00639   2.11618
   A10        1.99525  -0.00671   0.00021  -0.03155  -0.03123   1.96402
   A11        1.91347   0.00353   0.00040   0.01524   0.01556   1.92903
   A12        1.84186   0.00411  -0.00370   0.02642   0.02266   1.86452
   A13        1.92213   0.00153  -0.00224   0.00805   0.00588   1.92801
   A14        1.88531  -0.00000   0.00301  -0.00788  -0.00473   1.88058
   A15        1.90225  -0.00239   0.00252  -0.00978  -0.00753   1.89471
    D1        0.18086   0.00034  -0.05094   0.10942   0.05849   0.23935
    D2       -2.87468  -0.00120   0.05086  -0.00333   0.04750  -2.82718
    D3       -1.92278   0.00121  -0.05064   0.11833   0.06760  -1.85517
    D4        1.30487  -0.00033   0.05115   0.00557   0.05661   1.36148
    D5        2.29636   0.00175  -0.05240   0.12683   0.07456   2.37092
    D6       -0.75917   0.00021   0.04940   0.01407   0.06357  -0.69561
    D7        0.56224  -0.00052   0.04867   0.04283   0.09161   0.65385
    D8        2.73008  -0.00067   0.04618   0.04221   0.08838   2.81846
    D9       -1.50686   0.00052   0.04731   0.05269   0.10030  -1.40656
   D10       -2.66551   0.00102  -0.05286   0.15561   0.10259  -2.56292
   D11       -0.49768   0.00088  -0.05535   0.15499   0.09937  -0.39831
   D12        1.54857   0.00206  -0.05422   0.16548   0.11129   1.65986
         Item               Value     Threshold  Converged?
 Maximum Force            0.063774     0.000450     NO 
 RMS     Force            0.011226     0.000300     NO 
 Maximum Displacement     0.187351     0.001800     NO 
 RMS     Displacement     0.064684     0.001200     NO 
 Predicted change in Energy=-3.542602D-03
 GradGradGradGradGradGradGradGradGradGradGradGradGradGradGradGradGradGrad

                          Input orientation:                          
 ---------------------------------------------------------------------
 Center     Atomic      Atomic             Coordinates (Angstroms)
 Number     Number       Type             X           Y           Z
 ---------------------------------------------------------------------
      1          6           0       -4.148483    0.055144   -0.000301
      2          1           0       -3.453754   -0.662392   -0.441934
      3          1           0       -4.180518    0.941571   -0.642254
      4          1           0       -5.154551   -0.370834    0.036767
      5          6           0       -3.730957    0.463476    1.397898
      6          6           0       -2.328744    0.109732    1.839120
      7          1           0       -1.599211    0.207368    1.032593
      8          1           0       -2.032897    0.716516    2.696909
      9          1           0       -2.348616   -0.943702    2.146608
     10          8           0       -4.530583    0.990762    2.172327
 ---------------------------------------------------------------------
                    Distance matrix (angstroms):
                    1          2          3          4          5
     1  C    0.000000
     2  H    1.092038   0.000000
     3  H    1.094935   1.772290   0.000000
     4  H    1.093162   1.790774   1.769806   0.000000
     5  C    1.515263   2.174719   2.143105   2.139011   0.000000
     6  C    2.588030   2.658012   3.205970   3.385942   1.511957
     7  H    2.754783   2.523894   3.163434   3.737168   2.177930
     8  H    3.491140   3.711139   3.976548   4.243042   2.152874
     9  H    2.974295   2.828607   3.832476   3.557089   2.109878
    10  O    2.396183   3.275185   2.836694   2.608428   1.231735
                    6          7          8          9         10
     6  C    0.000000
     7  H    1.091895   0.000000
     8  H    1.091565   1.793672   0.000000
     9  H    1.097573   1.768502   1.777310   0.000000
    10  O    2.394856   3.241240   2.566872   2.916126   0.000000
 Stoichiometry    C3H6O
 Framework group  C1[X(C3H6O)]
 Deg. of freedom    24
 Full point group                 C1      NOp   1
 Largest Abelian subgroup         C1      NOp   1
 Largest concise Abelian subgroup C1      NOp   1
                         Standard orientation:                         
 ---------------------------------------------------------------------
 Center     Atomic      Atomic             Coordinates (Angstroms)
 Number     Number       Type             X           Y           Z
 ---------------------------------------------------------------------
      1          6           0       -1.293897   -0.615211    0.005919
      2          1           0       -1.134000   -1.658938    0.284512
      3          1           0       -1.757620   -0.591846   -0.985695
      4          1           0       -1.981084   -0.139850    0.710766
      5          6           0        0.002383    0.168702   -0.028169
      6          6           0        1.294115   -0.616689   -0.003588
      7          1           0        1.233248   -1.540337   -0.582729
      8          1           0        2.123670   -0.000096   -0.354540
      9          1           0        1.480158   -0.889681    1.043088
     10          8           0        0.002503    1.399992    0.004953
 ---------------------------------------------------------------------
 Rotational constants (GHZ):          10.1309921           8.4252959           4.8792618
 Standard basis: 6-31+G(d) (6D, 7F)
 There are    88 symmetry adapted cartesian basis functions of A   symmetry.
 There are    88 symmetry adapted basis functions of A   symmetry.
    88 basis functions,   152 primitive gaussians,    88 cartesian basis functions
    16 alpha electrons       16 beta electrons
       nuclear repulsion energy       118.8910398379 Hartrees.
 NAtoms=   10 NActive=   10 NUniq=   10 SFac= 1.00D+00 NAtFMM=   60 NAOKFM=F Big=F
 Integral buffers will be    131072 words long.
 Raffenetti 2 integral format.
 Two-electron integral symmetry is turned on.
 Nuclear repulsion after empirical dispersion term =      118.8811764027 Hartrees.
 ------------------------------------------------------------------------------
 Polarizable Continuum Model (PCM)
 =================================
 Model                : PCM.
 Atomic radii         : UFF (Universal Force Field).
 Polarization charges : Total charges.
 Charge compensation  : None.
 Solution method      : On-the-fly selection.
 Cavity type          : Scaled VdW (van der Waals Surface) (Alpha=1.100).
 Cavity algorithm     : GePol (No added spheres)
                        Default sphere list used, NSphG=   10.
                        Lebedev-Laikov grids with approx.  5.0 points / Ang**2.
                        Smoothing algorithm: York/Karplus (Gamma=1.0000).
                        Polarization charges: spherical gaussians, with
                                              point-specific exponents (IZeta= 3).
                        Self-potential: point-specific (ISelfS= 7).
                        Self-field    : sphere-specific E.n sum rule (ISelfD= 2).
 1st derivatives      : Analytical E(r).r(x)/FMM algorithm (CHGder, D1EAlg=3).
                        Cavity 1st derivative terms included.
 Solvent              : Water, Eps=  78.355300 Eps(inf)=   1.777849
 ------------------------------------------------------------------------------
 Spheres list:
 ISph  on   Nord     Re0    Alpha      Xe            Ye            Ze
    1   C      1    1.9255  1.100     -1.293897     -0.615211      0.005919
    2   H      2    1.4430  1.100     -1.134000     -1.658938      0.284512
    3   H      3    1.4430  1.100     -1.757620     -0.591846     -0.985695
    4   H      4    1.4430  1.100     -1.981084     -0.139850      0.710766
    5   C      5    1.9255  1.100      0.002383      0.168702     -0.028169
    6   C      6    1.9255  1.100      1.294115     -0.616689     -0.003588
    7   H      7    1.4430  1.100      1.233248     -1.540337     -0.582729
    8   H      8    1.4430  1.100      2.123670     -0.000096     -0.354540
    9   H      9    1.4430  1.100      1.480158     -0.889681      1.043088
   10   O     10    1.7500  1.100      0.002503      1.399992      0.004953
 ------------------------------------------------------------------------------
 One-electron integrals computed using PRISM.
 NBasis=    88 RedAO= T EigKep=  1.81D-04  NBF=    88
 NBsUse=    88 1.00D-06 EigRej= -1.00D+00 NBFU=    88
 Initial guess from the checkpoint file:  "acetone.chk"
 B after Tr=     0.000000    0.000000   -0.000000
         Rot=    0.999989   -0.003146    0.003335    0.000217 Ang=  -0.53 deg.
 ExpMin= 4.38D-02 ExpMax= 5.48D+03 ExpMxC= 8.25D+02 IAcc=3 IRadAn=         5 AccDes= 0.00D+00
 Harris functional with IExCor=  402 and IRadAn=       5 diagonalized for initial guess.
 HarFok:  IExCor=  402 AccDes= 0.00D+00 IRadAn=         5 IDoV= 1 UseB2=F ITyADJ=14
 ICtDFT=  3500011 ScaDFX=  1.000000  1.000000  1.000000  1.000000
 FoFCou: FMM=F IPFlag=           0 FMFlag=      100000 FMFlg1=           0
         NFxFlg=           0 DoJE=T BraDBF=F KetDBF=T FulRan=T
         wScrn=  0.000000 ICntrl=       500 IOpCl=  0 I1Cent=   200000004 NGrid=           0
         NMat0=    1 NMatS0=      1 NMatT0=    0 NMatD0=    1 NMtDS0=    0 NMtDT0=    0
 Petite list used in FoFCou.
 Keep R1 ints in memory in canonical form, NReq=22295982.
 Requested convergence on RMS density matrix=1.00D-08 within 128 cycles.
 Requested convergence on MAX density matrix=1.00D-06.
 Requested convergence on             energy=1.00D-06.
 No special actions if energy rises.
 Inv3:  Mode=1 IEnd=     2544723.
 Iteration    1 A*A^-1 deviation from unit magnitude is 4.00D-15 for    910.
 Iteration    1 A*A^-1 deviation from orthogonality  is 2.45D-15 for    868    305.
 Iteration    1 A^-1*A deviation from unit magnitude is 4.00D-15 for    910.
 Iteration    1 A^-1*A deviation from orthogonality  is 2.49D-15 for    826    368.
 Error on total polarization charges =  0.01128
 SCF Done:  E(RB3LYP) =  -193.182277059     A.U. after   10 cycles
            NFock= 10  Conv=0.83D-08     -V/T= 2.0100
 D1PCM: PCM CHGder 1st derivatives, ID1Alg=3 FixD1E=F DoIter=F DoCFld=F I1PDM=0.
 Calling FoFJK, ICntrl=      2127 FMM=F ISym2X=0 I1Cent= 0 IOpClX= 0 NMat=1 NMatS=1 NMatT=0.
 ***** Axes restored to original set *****
 -------------------------------------------------------------------
 Center     Atomic                   Forces (Hartrees/Bohr)
 Number     Number              X              Y              Z
 -------------------------------------------------------------------
      1        6          -0.000219074   -0.000149220    0.002519443
      2        1           0.000263208   -0.000593191   -0.000437441
      3        1           0.000328404    0.001670798   -0.000692595
      4        1          -0.000906397    0.000162103   -0.001029391
      5        6          -0.004383844   -0.002456773    0.005291826
      6        6          -0.002667376    0.003317162    0.001411143
      7        1           0.000445503    0.000086695   -0.001656144
      8        1           0.000465406    0.000050366    0.000934730
      9        1           0.001335417   -0.001344305   -0.000424452
     10        8           0.005338754   -0.000743636   -0.005917118
 -------------------------------------------------------------------
[...]
 -------------------------------------------------------------------
      1        6           0.000010384   -0.000002438    0.000000538
      2        1          -0.000002206   -0.000003808    0.000003491
      3        1          -0.000004743   -0.000001440    0.000003433
      4        1          -0.000002104   -0.000006636   -0.000004011
      5        6          -0.000018932    0.000018634    0.000004970
      6        6           0.000014280   -0.000011718   -0.000012596
      7        1          -0.000006188    0.000004173    0.000001815
      8        1           0.000001341    0.000004588    0.000001561
      9        1           0.000000405    0.000004694    0.000004034
     10        8           0.000007763   -0.000006049   -0.000003235
 -------------------------------------------------------------------
 Cartesian Forces:  Max     0.000018932 RMS     0.000007543
 FormGI is forming the generalized inverse of G from B-inverse, IUseBI=4.

 GradGradGradGradGradGradGradGradGradGradGradGradGradGradGradGradGradGrad
 Berny optimization.
 Internal  Forces:  Max     0.000013730 RMS     0.000004467
 Search for a local minimum.
 Step number   1 out of a maximum of    2
 All quantities printed in internal units (Hartrees-Bohrs-Radians)
 Second derivative matrix not updated -- analytic derivatives used.
 ITU=  0
     Eigenvalues ---    0.00052   0.00100   0.02864   0.05323   0.05442
     Eigenvalues ---    0.05597   0.05835   0.12338   0.12468   0.12733
     Eigenvalues ---    0.13190   0.13221   0.14183   0.21168   0.21730
     Eigenvalues ---    0.30387   0.30773   0.33595   0.33754   0.34342
     Eigenvalues ---    0.34455   0.35079   0.35236   0.80291
 Angle between quadratic step and forces=  79.28 degrees.
 Linear search not attempted -- first point.
 Iteration  1 RMS(Cart)=  0.00025625 RMS(Int)=  0.00000004
 Iteration  2 RMS(Cart)=  0.00000004 RMS(Int)=  0.00000000
 Variable       Old X    -DE/DX   Delta X   Delta X   Delta X     New X
                                 (Linear)    (Quad)   (Total)
    R1        2.07177   0.00000   0.00000  -0.00000  -0.00000   2.07176
    R2        2.07434  -0.00000   0.00000  -0.00001  -0.00001   2.07433
    R3        2.06394   0.00000   0.00000   0.00001   0.00001   2.06394
    R4        2.85650   0.00000   0.00000   0.00000   0.00000   2.85650
    R5        2.85646   0.00001   0.00000   0.00004   0.00004   2.85650
    R6        2.31808  -0.00001   0.00000  -0.00002  -0.00002   2.31806
    R7        2.07178  -0.00000   0.00000  -0.00002  -0.00002   2.07176
    R8        2.06393   0.00000   0.00000   0.00001   0.00001   2.06394
    R9        2.07434  -0.00000   0.00000  -0.00001  -0.00001   2.07433
    A1        1.86373   0.00000   0.00000   0.00004   0.00004   1.86377
    A2        1.92073  -0.00000   0.00000  -0.00003  -0.00003   1.92070
    A3        1.92905  -0.00000   0.00000  -0.00000  -0.00000   1.92905
    A4        1.90875  -0.00000   0.00000  -0.00004  -0.00004   1.90871
    A5        1.90787  -0.00000   0.00000  -0.00005  -0.00005   1.90782
    A6        1.93234   0.00001   0.00000   0.00008   0.00008   1.93241
    A7        2.03866  -0.00001   0.00000  -0.00009  -0.00009   2.03857
    A8        2.12225   0.00001   0.00000   0.00006   0.00006   2.12231
    A9        2.12228   0.00000   0.00000   0.00003   0.00003   2.12231
   A10        1.92907  -0.00000   0.00000  -0.00002  -0.00002   1.92905
   A11        1.93242  -0.00000   0.00000  -0.00001  -0.00001   1.93241
   A12        1.90783   0.00000   0.00000  -0.00001  -0.00001   1.90782
   A13        1.92071   0.00000   0.00000  -0.00001  -0.00001   1.92070
   A14        1.86371   0.00000   0.00000   0.00007   0.00007   1.86377
   A15        1.90873  -0.00000   0.00000  -0.00002  -0.00002   1.90871
    D1        0.88173  -0.00000   0.00000  -0.00044  -0.00044   0.88129
    D2       -2.25991   0.00000   0.00000  -0.00039  -0.00039  -2.26031
    D3       -1.16474  -0.00000   0.00000  -0.00046  -0.00046  -1.16520
    D4        1.97680   0.00000   0.00000  -0.00041  -0.00041   1.97639
    D5        3.01463  -0.00000   0.00000  -0.00043  -0.00043   3.01420
    D6       -0.12701   0.00000   0.00000  -0.00038  -0.00038  -0.12739
    D7        0.88143   0.00000   0.00000  -0.00015  -0.00015   0.88129
    D8        3.01438   0.00000   0.00000  -0.00017  -0.00017   3.01420
    D9       -1.16499  -0.00000   0.00000  -0.00021  -0.00021  -1.16520
   D10       -2.26011   0.00000   0.00000  -0.00020  -0.00020  -2.26031
   D11       -0.12717  -0.00000   0.00000  -0.00022  -0.00022  -0.12739
   D12        1.97665  -0.00000   0.00000  -0.00026  -0.00026   1.97639
         Item               Value     Threshold  Converged?
 Maximum Force            0.000014     0.000450     YES
 RMS     Force            0.000004     0.000300     YES
 Maximum Displacement     0.000673     0.001800     YES
 RMS     Displacement     0.000256     0.001200     YES
 Predicted change in Energy=-2.897620D-09
 Optimization completed.
    -- Stationary point found.
                           ----------------------------
                           !   Optimized Parameters   !
                           ! (Angstroms and Degrees)  !
 --------------------------                            --------------------------
 ! Name  Definition              Value          Derivative Info.                !
 --------------------------------------------------------------------------------
 ! R1    R(1,2)                  1.0963         -DE/DX =    0.0                 !
 ! R2    R(1,3)                  1.0977         -DE/DX =    0.0                 !
 ! R3    R(1,4)                  1.0922         -DE/DX =    0.0                 !
 ! R4    R(1,5)                  1.5116         -DE/DX =    0.0                 !
 ! R5    R(5,6)                  1.5116         -DE/DX =    0.0                 !
 ! R6    R(5,10)                 1.2267         -DE/DX =    0.0                 !
 ! R7    R(6,7)                  1.0963         -DE/DX =    0.0                 !
 ! R8    R(6,8)                  1.0922         -DE/DX =    0.0                 !
 ! R9    R(6,9)                  1.0977         -DE/DX =    0.0                 !
 ! A1    A(2,1,3)              106.7839         -DE/DX =    0.0                 !
 ! A2    A(2,1,4)              110.0498         -DE/DX =    0.0                 !
 ! A3    A(2,1,5)              110.5264         -DE/DX =    0.0                 !
 ! A4    A(3,1,4)              109.3633         -DE/DX =    0.0                 !
 ! A5    A(3,1,5)              109.313          -DE/DX =    0.0                 !
 ! A6    A(4,1,5)              110.7147         -DE/DX =    0.0                 !
 ! A7    A(1,5,6)              116.8064         -DE/DX =    0.0                 !
 ! A8    A(1,5,10)             121.5957         -DE/DX =    0.0                 !
 ! A9    A(6,5,10)             121.5979         -DE/DX =    0.0                 !
 ! A10   A(5,6,7)              110.5276         -DE/DX =    0.0                 !
 ! A11   A(5,6,8)              110.7194         -DE/DX =    0.0                 !
 ! A12   A(5,6,9)              109.3104         -DE/DX =    0.0                 !
 ! A13   A(7,6,8)              110.0486         -DE/DX =    0.0                 !
 ! A14   A(7,6,9)              106.7825         -DE/DX =    0.0                 !
 ! A15   A(8,6,9)              109.3623         -DE/DX =    0.0                 !
 ! D1    D(2,1,5,6)             50.5194         -DE/DX =    0.0                 !
 ! D2    D(2,1,5,10)          -129.4835         -DE/DX =    0.0                 !
 ! D3    D(3,1,5,6)            -66.7346         -DE/DX =    0.0                 !
 ! D4    D(3,1,5,10)           113.2624         -DE/DX =    0.0                 !
 ! D5    D(4,1,5,6)            172.7256         -DE/DX =    0.0                 !
 ! D6    D(4,1,5,10)            -7.2774         -DE/DX =    0.0                 !
 ! D7    D(1,5,6,7)             50.5023         -DE/DX =    0.0                 !
 ! D8    D(1,5,6,8)            172.711          -DE/DX =    0.0                 !
 ! D9    D(1,5,6,9)            -66.7492         -DE/DX =    0.0                 !
 ! D10   D(10,5,6,7)          -129.4947         -DE/DX =    0.0                 !
 ! D11   D(10,5,6,8)            -7.286          -DE/DX =    0.0                 !
 ! D12   D(10,5,6,9)           113.2537         -DE/DX =    0.0                 !
 --------------------------------------------------------------------------------
 GradGradGradGradGradGradGradGradGradGradGradGradGradGradGradGradGradGrad


 ----------------------------------------------------------------------

 Electric dipole moment (input orientation):
 (Debye = 10**-18 statcoulomb cm , SI units = C m)
                  (au)            (Debye)         (10**-30 SI)
   Tot        0.165323D+01      0.420209D+01      0.140167D+02
   x          0.109333D+01      0.277897D+01      0.926966D+01
   y         -0.614816D+00     -0.156271D+01     -0.521263D+01
   z         -0.107694D+01     -0.273730D+01     -0.913066D+01

 Dipole polarizability, Alpha (input orientation).
 (esu units = cm**3 , SI units = C**2 m**2 J**-1)
 Alpha(0;0):
               (au)            (10**-24 esu)      (10**-40 SI)
   iso        0.484606D+02      0.718112D+01      0.799007D+01
   aniso      0.174118D+02      0.258016D+01      0.287082D+01
   xx         0.525634D+02      0.778909D+01      0.866653D+01
   yx        -0.452285D+01     -0.670217D+00     -0.745717D+00
   yy         0.408013D+02      0.604613D+01      0.672722D+01
   zx        -0.298619D+01     -0.442508D+00     -0.492356D+00
   zy         0.525453D+01      0.778642D+00      0.866356D+00
   zz         0.520172D+02      0.770815D+01      0.857647D+01

 ----------------------------------------------------------------------

 Dipole orientation:
     6         -5.75750621          1.19464635         -5.26298044
     1         -5.85733764          2.68905395         -3.83155032
     1         -5.78323939         -0.61254792         -4.24501542
     1         -7.39751299          1.30013122         -6.51161157
     6         -3.33322624          1.40151794         -6.75953055
     6         -0.90906968          1.60824641         -5.26284315
     1         -0.80954463          0.11405815         -3.83114298
     1          0.73111669          1.50240588         -6.51120225
     1         -0.88325547          3.41558671         -4.24513096
     8         -3.33319553          1.40152093         -9.07761180

 Electric dipole moment (dipole orientation):
 (Debye = 10**-18 statcoulomb cm , SI units = C m)
                  (au)            (Debye)         (10**-30 SI)
   Tot        0.165323D+01      0.420209D+01      0.140167D+02
   x          0.000000D+00      0.000000D+00      0.000000D+00
   y          0.000000D+00      0.000000D+00      0.000000D+00
   z          0.165323D+01      0.420209D+01      0.140167D+02

 Dipole polarizability, Alpha (dipole orientation).
 (esu units = cm**3 , SI units = C**2 m**2 J**-1)
 Alpha(0;0):
               (au)            (10**-24 esu)      (10**-40 SI)
   iso        0.484606D+02      0.718112D+01      0.799007D+01
   aniso      0.174118D+02      0.258016D+01      0.287082D+01
   xx         0.492046D+02      0.729137D+01      0.811274D+01
   yx         0.120229D+01      0.178161D+00      0.198231D+00
   yy         0.381289D+02      0.565012D+01      0.628660D+01
   zx        -0.226033D-03     -0.334946D-04     -0.372678D-04
   zy        -0.323956D-04     -0.480054D-05     -0.534132D-05
   zz         0.580484D+02      0.860188D+01      0.957088D+01

 ----------------------------------------------------------------------
 Unable to Open any file for archive entry.
 1\1\GINC-DUCKTER-ASUS\Freq\RB3LYP\6-31+G(d)\C3H6O1\DUCKTER\24-Jun-2024
 \0\\#N Geom=AllCheck Guess=TCheck SCRF=Check GenChk RB3LYP/6-31+G(d) F
 req\\Title card required\\0,1\C,-4.1758340456,0.0027457743,0.034415688
 7\H,-3.8314990769,-1.0113985143,-0.1998634989\H,-3.6871732935,0.676624
 5834,-0.6811423126\H,-5.2591324424,0.068076801,-0.0883444552\C,-3.7727
 534946,0.3880101232,1.4394124069\C,-2.3221920953,0.1842812066,1.812528
 2381\H,-1.6646784612,0.6348464664,1.0597835603\H,-2.1126459955,0.61053
 09334,2.7960276077\H,-2.098424387,-0.8902722712,1.8264178108\O,-4.5839
 807379,0.8441969273,2.2384977642\\Version=ES64L-G16RevC.01\State=1-A\H
 F=-193.1837252\RMSD=1.495e-09\RMSF=7.543e-06\ZeroPoint=0.0838954\Therm
 al=0.0892167\ETot=-193.0945085\HTot=-193.0935643\GTot=-193.1278073\Dip
 ole=1.0933327,-0.6148163,-1.0769377\DipoleDeriv=-0.0136234,-0.0101389,
 -0.0913577,-0.0008781,0.0371085,-0.1015049,-0.0606228,-0.1449873,-0.48
 34868,0.0759136,0.0777401,-0.034922,0.0672417,-0.0620872,-0.0681082,-0
 .0100252,0.0027154,0.0870947,0.054546,-0.0932451,0.0298646,-0.0729872,
 0.0354658,0.0865764,0.0326853,0.0337877,0.0249539,-0.1255372,0.0053517
 ,-0.0652063,0.0207812,0.0964128,-0.0204861,-0.0112871,-0.0169639,0.047
 6122,1.454369,-0.3610479,-0.1272543,-0.3504435,0.3866076,0.4412386,-0.
 1332669,0.43047,1.4016629,-0.4717163,0.1267671,-0.066839,0.1479569,0.0
 212929,-0.0081129,-0.1149893,0.0045034,-0.0096181,0.0271926,-0.0146463
 ,0.0438173,-0.0861566,0.091578,0.0656867,0.0657438,0.0780928,-0.017862
 7,0.03416,0.0056809,-0.0259331,-0.0258355,0.0719047,-0.0851952,-0.0706
 458,-0.0724101,-0.0875721,0.0754817,-0.008095,-0.0074071,0.0329402,-0.
 0786305,-0.0083949,-0.0452317,-0.0178453,0.1181351,-1.1107861,0.271633
 5,0.3452377,0.267381,-0.5996525,-0.3016995,0.3476397,-0.2973628,-1.080
 9191\Polar=52.5633531,-4.5228513,40.8012824,-2.9861907,5.2545336,52.01
 71728\Quadrupole=-0.3794173,0.6686824,-0.2892651,1.0126076,2.0489777,-
 1.0476298\PG=C01 [X(C3H6O1)]\NImag=0\\0.60361334,-0.01966290,0.5290832
 2,-0.01659925,-0.00707373,0.47080655,-0.07558581,0.07851463,0.01276509
 ,0.07506063,0.07766072,-0.27466307,-0.05419522,-0.08614266,0.29766073,
 0.01321255,-0.05622216,-0.05436440,-0.01720538,0.05829037,0.06049497,-
 0.09923352,-0.07442100,0.07312470,0.00429404,0.00631988,-0.00725105,0.
 10308242,-0.07364702,-0.14075452,0.10708300,-0.01384511,-0.01870489,0.
 02086866,0.08106027,0.15447509,0.07547397,0.11115943,-0.15825023,-0.00
 366958,-0.00448439,0.00571988,-0.08334643,-0.11683104,0.17042818,-0.32
 060223,0.01629973,-0.03022170,-0.00652787,-0.00023435,-0.00065994,-0.0
 1128682,0.00133060,-0.00181615,0.34461549,0.01817706,-0.05042727,0.000
 91851,0.02943150,0.00093167,0.00406438,-0.01992793,0.00167429,-0.00370
 341,-0.01838964,0.04740217,-0.02533274,0.00048310,-0.05062911,0.006991
 79,0.00084488,-0.00014979,0.02091320,-0.00314859,0.00328262,0.03220576
 ,-0.00061923,0.05328464,-0.10910854,-0.01071952,-0.04363381,0.00177354
 ,0.00330988,0.01304495,0.00363427,0.00563954,0.01689654,-0.01018141,-0
 .00911823,-0.03529854,0.66838675,-0.01131954,-0.09440955,-0.01578491,-
 0.00953310,-0.00582363,-0.03131974,0.00913542,0.00657817,0.02173622,0.
 00181844,-0.00073365,0.00256204,-0.14790105,0.33854172,-0.04838212,-0.
 01727526,-0.16100584,0.00365382,0.00102642,-0.00328003,-0.00268281,-0.
 00748227,-0.01933215,0.00167647,0.00028662,-0.00427905,-0.15514544,0.1
 7286413,0.64815365,-0.00562063,0.00317721,-0.00766576,-0.00065720,0.00
 022260,0.00002092,-0.00148302,-0.00052388,-0.00077008,0.00096873,-0.00
 010035,0.00010108,-0.16941859,0.00200342,-0.04213515,0.47502287,-0.006
 17405,0.01655811,-0.00478168,0.00155560,0.00027854,0.00271142,-0.00059
 228,-0.00081562,-0.00247865,-0.00089321,0.00091795,-0.00217901,-0.0016
 7957,-0.08791990,0.00368337,0.01363904,0.53229138,-0.03042718,-0.00119
 385,-0.00364514,-0.00041298,0.00028452,0.00012312,0.00070656,0.0008986
 9,0.00122256,-0.00223322,-0.00131991,-0.00567828,-0.04512042,0.0053172
 9,-0.10721545,-0.01686666,0.03155987,0.59620061,0.00148542,0.00185750,
 -0.00122416,0.00000615,-0.00002513,0.00022367,-0.00055950,0.00000818,-
 0.00121148,0.00038453,0.00042050,0.00021923,-0.01523299,-0.01511023,0.
 02604229,-0.14234806,-0.07105545,0.10784985,0.15316126,-0.00024136,-0.
 00030818,0.00001082,-0.00014829,-0.00010875,-0.00005973,0.00010709,0.0
 0018763,0.00012941,-0.00002254,-0.00005678,-0.00013320,0.00626148,0.00
 103251,-0.00504634,-0.06939853,-0.08666254,0.07419443,0.07279120,0.094
 12397,0.00030041,0.00106821,-0.00143274,0.00003050,-0.00007241,0.00009
 647,-0.00097928,-0.00029999,-0.00022351,0.00023740,-0.00013438,0.00034
 610,-0.00288888,-0.00743589,0.00686936,0.10694591,0.07540518,-0.175592
 35,-0.11932872,-0.08412519,0.18592253,-0.00575185,0.00178729,0.0000017
 8,0.00020981,-0.00001392,0.00049266,0.00004778,0.00016572,-0.00010903,
 -0.00055200,-0.00020814,-0.00173589,-0.00638674,-0.01468190,-0.0326738
 1,-0.05811591,-0.01953569,-0.04202759,0.00457756,0.00965411,0.01666558
 ,0.06061276,0.00127589,0.00076257,-0.00020849,-0.00007288,0.00027104,0
 .00030507,-0.00011921,0.00003834,-0.00043820,0.00016738,0.00045618,0.0
 0020148,0.00293502,0.00056601,0.00563366,-0.02181327,-0.09085095,-0.09
 852603,0.00423103,0.00603192,0.01298730,0.02122730,0.09271837,-0.00249
 323,0.00036371,0.00119827,0.00029163,-0.00008585,0.00019285,0.00022497
 ,0.00005202,0.00029641,-0.00025001,-0.00026434,-0.00055239,0.00048776,
 -0.00341484,-0.00936842,-0.04668571,-0.09768501,-0.27269531,-0.0048268
 6,-0.00840458,-0.01635659,0.05094328,0.10721559,0.29197236,-0.00005852
 ,-0.00320171,0.00055057,-0.00043140,-0.00016460,-0.00113190,0.00025879
 ,0.00017070,0.00064916,0.00008173,-0.00042320,0.00022238,-0.00421686,0
 .03548526,0.00099628,-0.05367735,0.05659444,-0.00551982,0.00508724,-0.
 02043783,-0.00001748,0.00067722,-0.00655557,0.00094543,0.05847556,0.00
 041437,-0.00032691,-0.00072696,-0.00040698,0.00053283,0.00012315,-0.00
 019770,0.00009301,-0.00009842,0.00011797,0.00022545,0.00008187,0.00135
 221,-0.00334497,-0.00097910,0.05182500,-0.29940679,0.00249955,0.002718
 61,-0.01321977,0.00004677,0.00172313,-0.00985574,0.00106998,-0.0580901
 1,0.32509613,-0.00007526,-0.00108943,-0.00069097,-0.00070453,0.0000402
 6,-0.00069787,-0.00025140,0.00004514,0.00028755,0.00008459,-0.00026647
 ,0.00007530,0.00290321,0.00799863,-0.00156108,-0.00558910,0.00247851,-
 0.04514460,-0.00531174,0.02236206,-0.00055930,0.00681216,-0.02835681,0
 .00284779,0.00259651,-0.00340904,0.04440924,0.01086234,0.00636877,0.01
 290254,0.00185811,-0.00093242,-0.00074648,0.00124555,-0.00035901,-0.00
 209692,0.00309984,0.00013845,0.00171374,-0.35924943,0.15010329,0.24865
 046,-0.04467083,0.02814117,0.03405147,-0.00656160,0.00143467,-0.000965
 44,0.00468137,-0.00127568,0.00136275,-0.00619641,0.00054349,-0.0004644
 4,0.39493106,0.01351682,0.01448561,-0.02524133,0.00064731,-0.00037447,
 0.00123857,-0.00136453,-0.00277150,-0.00499094,-0.00019439,-0.00039000
 ,0.00190666,0.14992025,-0.15448671,-0.15271123,0.02096876,0.01560981,-
 0.01371456,0.00416379,-0.00102001,0.00256040,-0.00011790,-0.00013775,0
 .00115331,-0.00337737,0.00020676,0.00019715,-0.18416274,0.12887825,0.0
 3432286,-0.03022001,-0.04198639,-0.00174037,-0.00164858,-0.00813520,-0
 .00045846,-0.00118564,-0.00343130,0.00097680,0.00103825,0.00429995,0.2
 4875464,-0.15252294,-0.34898099,0.01264454,-0.00871401,0.01242483,-0.0
 0243208,0.00107233,0.00093003,0.00163087,0.00118643,0.00246502,0.00070
 887,0.00139220,0.00103392,-0.29440767,0.18960197,0.38138013\\-0.000010
 38,0.00000244,-0.00000054,0.00000221,0.00000381,-0.00000349,0.00000474
 ,0.00000144,-0.00000343,0.00000210,0.00000664,0.00000401,0.00001893,-0
 .00001863,-0.00000497,-0.00001428,0.00001172,0.00001260,0.00000619,-0.
 00000417,-0.00000182,-0.00000134,-0.00000459,-0.00000156,-0.00000040,-
 0.00000469,-0.00000403,-0.00000776,0.00000605,0.00000324\\\@
 The archive entry for this job was punched.


 ERWIN WITH HIS PSI CAN DO
 CALCULATIONS QUITE A FEW.
 BUT ONE THING HAS NOT BEEN SEEN
 JUST WHAT DOES PSI REALLY MEAN.
 -- WALTER HUCKEL, TRANS. BY FELIX BLOCH
 Job cpu time:       0 days  0 hours  2 minutes 55.0 seconds.
 Elapsed time:       0 days  0 hours  0 minutes 11.0 seconds.
 File lengths (MBytes):  RWF=     37 Int=      0 D2E=      0 Chk=      5 Scr=      1
 Normal termination of Gaussian 16 at Mon Jun 24 19:22:20 2024.
