 Entering Gaussian System, Link 0=g16
 Input=/home/duckter/Documents/KET_DFT_demo/xichun.gjf
 Output=/home/duckter/Documents/KET_DFT_demo/xichun.log
 Initial command:
 /home/duckter/g16/l1.exe "/home/duckter/g16/scratch/Gau-79758.inp" -scrdir="/home/duckter/g16/scratch/"
 Entering Link 1 = /home/duckter/g16/l1.exe PID=     79761.
  
 Copyright (c) 1988-2019, Gaussian, Inc.  All Rights Reserved.
  
 This is part of the Gaussian(R) 16 program.  It is based on
 the Gaussian(R) 09 system (copyright 2009, Gaussian, Inc.),
 the Gaussian(R) 03 system (copyright 2003, Gaussian, Inc.),
 the Gaussian(R) 98 system (copyright 1998, Gaussian, Inc.),
 the Gaussian(R) 94 system (copyright 1995, Gaussian, Inc.),
 the Gaussian 92(TM) system (copyright 1992, Gaussian, Inc.),
 the Gaussian 90(TM) system (copyright 1990, Gaussian, Inc.),
 the Gaussian 88(TM) system (copyright 1988, Gaussian, Inc.),
 the Gaussian 86(TM) system (copyright 1986, Carnegie Mellon
 University), and the Gaussian 82(TM) system (copyright 1983,
 Carnegie Mellon University). Gaussian is a federally registered
 trademark of Gaussian, Inc.
  
 This software contains proprietary and confidential information,
 including trade secrets, belonging to Gaussian, Inc.
  
 This software is provided under written license and may be
 used, copied, transmitted, or stored only in accord with that
 written license.
  
 The following legend is applicable only to US Government
 contracts under FAR:
  
                    RESTRICTED RIGHTS LEGEND
  
 Use, reproduction and disclosure by the US Government is
 subject to restrictions as set forth in subparagraphs (a)
 and (c) of the Commercial Computer Software - Restricted
 Rights clause in FAR 52.227-19.
  
 Gaussian, Inc.
 340 Quinnipiac St., Bldg. 40, Wallingford CT 06492
  
  
 ---------------------------------------------------------------
 Warning -- This program may not be used in any manner that
 competes with the business of Gaussian, Inc. or will provide
 assistance to any competitor of Gaussian, Inc.  The licensee
 of this program is prohibited from giving any competitor of
 Gaussian, Inc. access to this program.  By using this program,
 the user acknowledges that Gaussian, Inc. is engaged in the
 business of creating and licensing software in the field of
 computational chemistry and represents and warrants to the
 licensee that it is not a competitor of Gaussian, Inc. and that
 it will not use this program in any manner prohibited above.
 ---------------------------------------------------------------
  

 Cite this work as:
 Gaussian 16, Revision C.01,
 M. J. Frisch, G. W. Trucks, H. B. Schlegel, G. E. Scuseria, 
 M. A. Robb, J. R. Cheeseman, G. Scalmani, V. Barone, 
 G. A. Petersson, H. Nakatsuji, X. Li, M. Caricato, A. V. Marenich, 
 J. Bloino, B. G. Janesko, R. Gomperts, B. Mennucci, H. P. Hratchian, 
 J. V. Ortiz, A. F. Izmaylov, J. L. Sonnenberg, D. Williams-Young, 
 F. Ding, F. Lipparini, F. Egidi, J. Goings, B. Peng, A. Petrone, 
 T. Henderson, D. Ranasinghe, V. G. Zakrzewski, J. Gao, N. Rega, 
 G. Zheng, W. Liang, M. Hada, M. Ehara, K. Toyota, R. Fukuda, 
 J. Hasegawa, M. Ishida, T. Nakajima, Y. Honda, O. Kitao, H. Nakai, 
 T. Vreven, K. Throssell, J. A. Montgomery, Jr., J. E. Peralta, 
 F. Ogliaro, M. J. Bearpark, J. J. Heyd, E. N. Brothers, K. N. Kudin, 
 V. N. Staroverov, T. A. Keith, R. Kobayashi, J. Normand, 
 K. Raghavachari, A. P. Rendell, J. C. Burant, S. S. Iyengar, 
 J. Tomasi, M. Cossi, J. M. Millam, M. Klene, C. Adamo, R. Cammi, 
 J. W. Ochterski, R. L. Martin, K. Morokuma, O. Farkas, 
 J. B. Foresman, and D. J. Fox, Gaussian, Inc., Wallingford CT, 2019.
 
 ******************************************
 Gaussian 16:  ES64L-G16RevC.01  3-Jul-2019
                27-Jun-2024 
 ******************************************
 %nprocshared=32
 Will use up to   32 processors via shared memory.
 %chk=xichun.chk
 ---------------------------------------------------------
 # opt freq b3lyp/6-31+g(d) scrf empiricaldispersion=gd3bj
 ---------------------------------------------------------
 1/18=20,19=15,26=3,38=1/1,3;
 2/9=110,12=2,17=6,18=5,40=1/2;
 3/5=1,6=6,7=11,11=2,25=1,30=1,70=2201,71=1,74=-5,124=41/1,2,3;
 4//1;
 5/5=2,38=5/2;
 6/7=2,8=2,9=2,10=2,28=1/1;
 7//1,2,3,16;
 1/18=20,19=15,26=3/3(2);
 2/9=110/2;
 99//99;
 2/9=110/2;
 3/5=1,6=6,7=11,11=2,25=1,30=1,70=2205,71=1,74=-5,124=41/1,2,3;
 4/5=5,16=3,69=1/1;
 5/5=2,38=5/2;
 7//1,2,3,16;
 1/18=20,19=15,26=3/3(-5);
 2/9=110/2;
 6/7=2,8=2,9=2,10=2,19=2,28=1/1;
 99/9=1/99;
 --------------
 DFGFSDGFSDGSFD
 --------------
 Symbolic Z-matrix:
 Charge =  0 Multiplicity = 1
 C                     0.24048  -0.44448   1.13841 
 H                     0.50377  -1.48782   1.31686 
 H                     0.51405   0.29652   1.88766 
 C                    -0.80307  -0.09454   0.13781 
 C                    -1.33086   1.28382  -0.09102 
 H                    -2.41859   1.28357   0.04074 
 H                    -0.88422   1.99792   0.60215 
 H                    -1.12387   1.59811  -1.12029 
 O                    -1.34564  -0.98718  -0.70296 
 H                    -1.01179  -1.88707  -0.531 
 

 GradGradGradGradGradGradGradGradGradGradGradGradGradGradGradGradGradGrad
 Berny optimization.
 Initialization pass.
                           ----------------------------
                           !    Initial Parameters    !
                           ! (Angstroms and Degrees)  !
 --------------------------                            --------------------------
 ! Name  Definition              Value          Derivative Info.                !
 --------------------------------------------------------------------------------
 ! R1    R(1,2)                  1.0907         estimate D2E/DX2                !
 ! R2    R(1,3)                  1.0887         estimate D2E/DX2                !
 ! R3    R(1,4)                  1.4875         estimate D2E/DX2                !
 ! R4    R(4,5)                  1.4936         estimate D2E/DX2                !
 ! R5    R(4,9)                  1.3409         estimate D2E/DX2                !
 ! R6    R(5,6)                  1.0957         estimate D2E/DX2                !
 ! R7    R(5,7)                  1.0908         estimate D2E/DX2                !
 ! R8    R(5,8)                  1.0959         estimate D2E/DX2                !
 ! R9    R(9,10)                 0.9751         estimate D2E/DX2                !
 ! A1    A(2,1,3)              118.5418         estimate D2E/DX2                !
 ! A2    A(2,1,4)              120.2929         estimate D2E/DX2                !
 ! A3    A(3,1,4)              118.6264         estimate D2E/DX2                !
 ! A4    A(1,4,5)              124.6154         estimate D2E/DX2                !
 ! A5    A(1,4,9)              123.3005         estimate D2E/DX2                !
 ! A6    A(5,4,9)              112.0421         estimate D2E/DX2                !
 ! A7    A(4,5,6)              109.4002         estimate D2E/DX2                !
 ! A8    A(4,5,7)              111.2284         estimate D2E/DX2                !
 ! A9    A(4,5,8)              109.9869         estimate D2E/DX2                !
 ! A10   A(6,5,7)              109.2815         estimate D2E/DX2                !
 ! A11   A(6,5,8)              107.4887         estimate D2E/DX2                !
 ! A12   A(7,5,8)              109.3749         estimate D2E/DX2                !
 ! A13   A(4,9,10)             111.4223         estimate D2E/DX2                !
 ! D1    D(2,1,4,5)            173.8824         estimate D2E/DX2                !
 ! D2    D(2,1,4,9)             -8.6615         estimate D2E/DX2                !
 ! D3    D(3,1,4,5)             12.2097         estimate D2E/DX2                !
 ! D4    D(3,1,4,9)           -170.3342         estimate D2E/DX2                !
 ! D5    D(1,4,5,6)           -123.3555         estimate D2E/DX2                !
 ! D6    D(1,4,5,7)             -2.5339         estimate D2E/DX2                !
 ! D7    D(1,4,5,8)            118.7975         estimate D2E/DX2                !
 ! D8    D(9,4,5,6)             58.9382         estimate D2E/DX2                !
 ! D9    D(9,4,5,7)            179.7598         estimate D2E/DX2                !
 ! D10   D(9,4,5,8)            -58.9088         estimate D2E/DX2                !
 ! D11   D(1,4,9,10)             3.6913         estimate D2E/DX2                !
 ! D12   D(5,4,9,10)          -178.5672         estimate D2E/DX2                !
 --------------------------------------------------------------------------------
 Trust Radius=3.00D-01 FncErr=1.00D-07 GrdErr=1.00D-06 EigMax=2.50D+02 EigMin=1.00D-04
 Number of steps in this run=     44 maximum allowed number of steps=    100.
 GradGradGradGradGradGradGradGradGradGradGradGradGradGradGradGradGradGrad

                          Input orientation:                          
 ---------------------------------------------------------------------
 Center     Atomic      Atomic             Coordinates (Angstroms)
 Number     Number       Type             X           Y           Z
 ---------------------------------------------------------------------
      1          6           0        0.240478   -0.444478    1.138414
      2          1           0        0.503772   -1.487815    1.316858
      3          1           0        0.514048    0.296525    1.887656
      4          6           0       -0.803069   -0.094544    0.137808
      5          6           0       -1.330861    1.283822   -0.091023
      6          1           0       -2.418591    1.283565    0.040744
      7          1           0       -0.884223    1.997917    0.602153
      8          1           0       -1.123873    1.598106   -1.120291
      9          8           0       -1.345636   -0.987182   -0.702961
     10          1           0       -1.011792   -1.887068   -0.531001
 ---------------------------------------------------------------------
                    Distance matrix (angstroms):
                    1          2          3          4          5
     1  C    0.000000
     2  H    1.090742   0.000000
     3  H    1.088710   1.873442   0.000000
     4  C    1.487500   2.244815   2.224792   0.000000
     5  C    2.639629   3.609706   2.879864   1.493593   0.000000
     6  H    3.355840   4.224834   3.603568   2.125680   1.095682
     7  H    2.741865   3.819380   2.549983   2.144900   1.090830
     8  H    3.336967   4.255800   3.663965   2.133259   1.095907
     9  O    2.490170   2.783992   3.437677   1.340923   2.352051
    10  H    2.536965   2.422998   3.598078   1.924581   3.217131
                    6          7          8          9         10
     6  H    0.000000
     7  H    1.783189   0.000000
     8  H    1.767267   1.784403   0.000000
     9  O    2.619279   3.290447   2.628128   0.000000
    10  H    3.515521   4.048879   3.536419   0.975098   0.000000
 Stoichiometry    C3H6O
 Framework group  C1[X(C3H6O)]
 Deg. of freedom    24
 Full point group                 C1      NOp   1
 Largest Abelian subgroup         C1      NOp   1
 Largest concise Abelian subgroup C1      NOp   1
                         Standard orientation:                         
 ---------------------------------------------------------------------
 Center     Atomic      Atomic             Coordinates (Angstroms)
 Number     Number       Type             X           Y           Z
 ---------------------------------------------------------------------
      1          6           0       -1.276728   -0.845793   -0.041214
      2          1           0       -2.264253   -0.394817    0.064294
      3          1           0       -1.173753   -1.917009    0.123658
      4          6           0       -0.055761    0.002695    0.003109
      5          6           0        1.342640   -0.521982    0.000032
      6          1           0        1.873157   -0.149238    0.883283
      7          1           0        1.355271   -1.612723    0.005917
      8          1           0        1.877735   -0.156961   -0.883961
      9          8           0       -0.090311    1.343171    0.001168
     10          1           0       -1.006569    1.675853    0.025899
 ---------------------------------------------------------------------
 Rotational constants (GHZ):           9.8405161           8.4655316           4.6866710
 Standard basis: 6-31+G(d) (6D, 7F)
 There are    88 symmetry adapted cartesian basis functions of A   symmetry.
 There are    88 symmetry adapted basis functions of A   symmetry.
    88 basis functions,   152 primitive gaussians,    88 cartesian basis functions
    16 alpha electrons       16 beta electrons
       nuclear repulsion energy       117.9493923757 Hartrees.
 NAtoms=   10 NActive=   10 NUniq=   10 SFac= 1.00D+00 NAtFMM=   60 NAOKFM=F Big=F
 Integral buffers will be    131072 words long.
 Raffenetti 2 integral format.
 Two-electron integral symmetry is turned on.
 Nuclear repulsion after empirical dispersion term =      117.9395907203 Hartrees.
 ------------------------------------------------------------------------------
 Polarizable Continuum Model (PCM)
 =================================
 Model                : PCM.
 Atomic radii         : UFF (Universal Force Field).
 Polarization charges : Total charges.
 Charge compensation  : None.
 Solution method      : On-the-fly selection.
 Cavity type          : Scaled VdW (van der Waals Surface) (Alpha=1.100).
 Cavity algorithm     : GePol (No added spheres)
                        Default sphere list used, NSphG=   10.
                        Lebedev-Laikov grids with approx.  5.0 points / Ang**2.
                        Smoothing algorithm: York/Karplus (Gamma=1.0000).
                        Polarization charges: spherical gaussians, with
                                              point-specific exponents (IZeta= 3).
                        Self-potential: point-specific (ISelfS= 7).
                        Self-field    : sphere-specific E.n sum rule (ISelfD= 2).
 1st derivatives      : Analytical E(r).r(x)/FMM algorithm (CHGder, D1EAlg=3).
                        Cavity 1st derivative terms included.
 Solvent              : Water, Eps=  78.355300 Eps(inf)=   1.777849
 ------------------------------------------------------------------------------
 Spheres list:
 ISph  on   Nord     Re0    Alpha      Xe            Ye            Ze
    1   C      1    1.9255  1.100     -1.276728     -0.845793     -0.041214
    2   H      2    1.4430  1.100     -2.264253     -0.394817      0.064294
    3   H      3    1.4430  1.100     -1.173753     -1.917009      0.123658
    4   C      4    1.9255  1.100     -0.055761      0.002695      0.003109
    5   C      5    1.9255  1.100      1.342640     -0.521982      0.000032
    6   H      6    1.4430  1.100      1.873157     -0.149238      0.883283
    7   H      7    1.4430  1.100      1.355271     -1.612723      0.005917
    8   H      8    1.4430  1.100      1.877735     -0.156961     -0.883961
    9   O      9    1.7500  1.100     -0.090311      1.343171      0.001168
   10   H     10    1.4430  1.100     -1.006569      1.675853      0.025899
 ------------------------------------------------------------------------------
 One-electron integrals computed using PRISM.
 PrsmSu:  requested number of processors reduced to:  30 ShMem   1 Linda.
 NBasis=    88 RedAO= T EigKep=  1.18D-04  NBF=    88
 NBsUse=    88 1.00D-06 EigRej= -1.00D+00 NBFU=    88
 ExpMin= 4.38D-02 ExpMax= 5.48D+03 ExpMxC= 8.25D+02 IAcc=3 IRadAn=         5 AccDes= 0.00D+00
 Harris functional with IExCor=  402 and IRadAn=       5 diagonalized for initial guess.
 HarFok:  IExCor=  402 AccDes= 0.00D+00 IRadAn=         5 IDoV= 1 UseB2=F ITyADJ=14
 ICtDFT=  3500011 ScaDFX=  1.000000  1.000000  1.000000  1.000000
 FoFCou: FMM=F IPFlag=           0 FMFlag=      100000 FMFlg1=           0
         NFxFlg=           0 DoJE=T BraDBF=F KetDBF=T FulRan=T
         wScrn=  0.000000 ICntrl=       500 IOpCl=  0 I1Cent=   200000004 NGrid=           0
         NMat0=    1 NMatS0=      1 NMatT0=    0 NMatD0=    1 NMtDS0=    0 NMtDT0=    0
 Petite list used in FoFCou.
 Keep R1 ints in memory in canonical form, NReq=36921278.
 Requested convergence on RMS density matrix=1.00D-08 within 128 cycles.
 Requested convergence on MAX density matrix=1.00D-06.
 Requested convergence on             energy=1.00D-06.
 No special actions if energy rises.
 Inv3:  Mode=1 IEnd=     2478843.
 Iteration    1 A*A^-1 deviation from unit magnitude is 4.22D-15 for    902.
 Iteration    1 A*A^-1 deviation from orthogonality  is 2.02D-15 for    899    733.
 Iteration    1 A^-1*A deviation from unit magnitude is 4.00D-15 for    902.
 Iteration    1 A^-1*A deviation from orthogonality  is 1.77D-15 for    891    222.
 Error on total polarization charges =  0.01501
 SCF Done:  E(RB3LYP) =  -193.137704235     A.U. after   11 cycles
            NFock= 11  Conv=0.50D-08     -V/T= 2.0113

 **********************************************************************

            Population analysis using the SCF Density.

 **********************************************************************

 Orbital symmetries:
       Occupied  (A) (A) (A) (A) (A) (A) (A) (A) (A) (A) (A) (A)
                 (A) (A) (A) (A)
       Virtual   (A) (A) (A) (A) (A) (A) (A) (A) (A) (A) (A) (A)
                 (A) (A) (A) (A) (A) (A) (A) (A) (A) (A) (A) (A)
                 (A) (A) (A) (A) (A) (A) (A) (A) (A) (A) (A) (A)
                 (A) (A) (A) (A) (A) (A) (A) (A) (A) (A) (A) (A)
                 (A) (A) (A) (A) (A) (A) (A) (A) (A) (A) (A) (A)
                 (A) (A) (A) (A) (A) (A) (A) (A) (A) (A) (A) (A)
 The electronic state is 1-A.
 Alpha  occ. eigenvalues --  -19.20495 -10.28064 -10.19304 -10.18760  -1.08539
 Alpha  occ. eigenvalues --   -0.77382  -0.68396  -0.61428  -0.49635  -0.46372
 Alpha  occ. eigenvalues --   -0.44538  -0.40920  -0.38846  -0.37880  -0.36137
 Alpha  occ. eigenvalues --   -0.22005
 Alpha virt. eigenvalues --   -0.00863   0.00144   0.03240   0.03943   0.05920
 Alpha virt. eigenvalues --    0.06441   0.06962   0.09043   0.09179   0.10648
 Alpha virt. eigenvalues --    0.11269   0.11949   0.15087   0.18510   0.20441
 Alpha virt. eigenvalues --    0.21227   0.21469   0.23447   0.25467   0.25716
 Alpha virt. eigenvalues --    0.25846   0.29146   0.33579   0.35683   0.36460
 Alpha virt. eigenvalues --    0.38454   0.61319   0.65066   0.65746   0.70951
 Alpha virt. eigenvalues --    0.73004   0.73284   0.74551   0.77058   0.89419
 Alpha virt. eigenvalues --    0.92479   0.95581   0.99338   1.02057   1.04284
 Alpha virt. eigenvalues --    1.10075   1.11831   1.16248   1.17542   1.17753
 Alpha virt. eigenvalues --    1.34935   1.36570   1.42650   1.44182   1.59422
 Alpha virt. eigenvalues --    1.70882   1.72322   1.76637   1.87457   1.92083
 Alpha virt. eigenvalues --    1.94446   2.00327   2.11889   2.19905   2.25408
 Alpha virt. eigenvalues --    2.32746   2.35774   2.41606   2.46299   2.48364
 Alpha virt. eigenvalues --    2.72047   2.86103   2.98448   4.09567   4.14605
 Alpha virt. eigenvalues --    4.25529   4.53340
          Condensed to atoms (all electrons):
               1          2          3          4          5          6
     1  C    5.759055   0.372163   0.365472   0.469786  -0.292929   0.004214
     2  H    0.372163   0.503005  -0.030081  -0.038182   0.010961  -0.000113
     3  H    0.365472  -0.030081   0.485055  -0.035516   0.014224   0.000050
     4  C    0.469786  -0.038182  -0.035516   5.129939  -0.029674  -0.051552
     5  C   -0.292929   0.010961   0.014224  -0.029674   6.063579   0.381944
     6  H    0.004214  -0.000113   0.000050  -0.051552   0.381944   0.490323
     7  H    0.023644   0.000097   0.000895  -0.061911   0.377470  -0.023294
     8  H   -0.003591  -0.000084   0.000103  -0.046108   0.384826  -0.032001
     9  O   -0.011547  -0.008736   0.005412   0.197000  -0.182466   0.001818
    10  H   -0.065721   0.005128   0.000001   0.006520   0.057144  -0.000154
               7          8          9         10
     1  C    0.023644  -0.003591  -0.011547  -0.065721
     2  H    0.000097  -0.000084  -0.008736   0.005128
     3  H    0.000895   0.000103   0.005412   0.000001
     4  C   -0.061911  -0.046108   0.197000   0.006520
     5  C    0.377470   0.384826  -0.182466   0.057144
     6  H   -0.023294  -0.032001   0.001818  -0.000154
     7  H    0.475236  -0.023743   0.007375  -0.000237
     8  H   -0.023743   0.489880   0.001609  -0.000135
     9  O    0.007375   0.001609   8.433403   0.179455
    10  H   -0.000237  -0.000135   0.179455   0.311458
 Mulliken charges:
               1
     1  C   -0.620546
     2  H    0.185843
     3  H    0.194386
     4  C    0.459699
     5  C   -0.785079
     6  H    0.228764
     7  H    0.224469
     8  H    0.229244
     9  O   -0.623322
    10  H    0.506541
 Sum of Mulliken charges =  -0.00000
 Mulliken charges with hydrogens summed into heavy atoms:
               1
     1  C   -0.240317
     4  C    0.459699
     5  C   -0.102602
     9  O   -0.116781
 Electronic spatial extent (au):  <R**2>=            300.5084
 Charge=             -0.0000 electrons
 Dipole moment (field-independent basis, Debye):
    X=             -0.2221    Y=              0.4014    Z=              0.4313  Tot=              0.6296
 Quadrupole moment (field-independent basis, Debye-Ang):
   XX=            -22.9184   YY=            -24.7025   ZZ=            -28.4749
   XY=             -4.5684   XZ=             -0.6434   YZ=             -0.4251
 Traceless Quadrupole moment (field-independent basis, Debye-Ang):
   XX=              2.4469   YY=              0.6628   ZZ=             -3.1096
   XY=             -4.5684   XZ=             -0.6434   YZ=             -0.4251
 Octapole moment (field-independent basis, Debye-Ang**2):
  XXX=             -0.6024  YYY=              6.2033  ZZZ=              0.8817  XYY=             -5.3862
  XXY=              7.1480  XXZ=              1.1919  XZZ=              4.5972  YZZ=              4.5094
  YYZ=              1.2013  XYZ=              0.5814
 Hexadecapole moment (field-independent basis, Debye-Ang**3):
 XXXX=           -204.8316 YYYY=           -144.8271 ZZZZ=            -44.1332 XXXY=            -10.4272
 XXXZ=             -2.6488 YYYX=            -16.8785 YYYZ=             -1.7586 ZZZX=             -1.2402
 ZZZY=             -0.9220 XXYY=            -56.5194 XXZZ=            -44.8546 YYZZ=            -37.2248
 XXYZ=             -1.0697 YYXZ=             -1.4636 ZZXY=             -3.8806
 N-N= 1.179395907203D+02 E-N=-6.851299075993D+02  KE= 1.909722879056D+02
 PrsmSu:  requested number of processors reduced to:  30 ShMem   1 Linda.
 D1PCM: PCM CHGder 1st derivatives, ID1Alg=3 FixD1E=F DoIter=F DoCFld=F I1PDM=0.
 CoulSu:  requested number of processors reduced to:  30 ShMem   1 Linda.
 CoulSu:  requested number of processors reduced to:  30 ShMem   1 Linda.
 Calling FoFJK, ICntrl=      2127 FMM=F ISym2X=0 I1Cent= 0 IOpClX= 0 NMat=1 NMatS=1 NMatT=0.
 ***** Axes restored to original set *****
 -------------------------------------------------------------------
 Center     Atomic                   Forces (Hartrees/Bohr)
 Number     Number              X              Y              Z
 -------------------------------------------------------------------
      1        6          -0.076137360    0.021777776   -0.059845451
      2        1           0.000422739    0.002694061   -0.003325572
      3        1           0.001277551   -0.000221148   -0.005595839
      4        6           0.078553910   -0.015525355    0.076706528
      5        6           0.000865426   -0.002391475    0.001328851
      6        1          -0.001148137    0.001306270   -0.000026630
      7        1           0.000341677    0.000361524    0.000154260
      8        1          -0.000019498    0.001204265   -0.000660055
      9        8          -0.004148336   -0.011643201   -0.009053016
     10        1          -0.000007971    0.002437283    0.000316923
 -------------------------------------------------------------------
 Cartesian Forces:  Max     0.078553910 RMS     0.027358101

 GradGradGradGradGradGradGradGradGradGradGradGradGradGradGradGradGradGrad
 Berny optimization.
 FormGI is forming the generalized inverse of G from B-inverse, IUseBI=4.
 Internal  Forces:  Max     0.104179875 RMS     0.018088699
 Search for a local minimum.
 Step number   1 out of a maximum of   44
 All quantities printed in internal units (Hartrees-Bohrs-Radians)
 Mixed Optimization -- RFO/linear search
 Second derivative matrix not updated -- first step.
 ITU=  0
     Eigenvalues ---    0.00851   0.00931   0.01130   0.01316   0.02473
     Eigenvalues ---    0.07295   0.07578   0.16000   0.16000   0.16000
     Eigenvalues ---    0.16000   0.16000   0.16000   0.24983   0.24992
     Eigenvalues ---    0.33059   0.33725   0.34139   0.34164   0.34717
     Eigenvalues ---    0.34727   0.34962   0.52349   0.56999
 RFO step:  Lambda=-3.08132228D-02 EMin= 8.50696301D-03
 Linear search not attempted -- first point.
 Iteration  1 RMS(Cart)=  0.05527290 RMS(Int)=  0.01438193
 Iteration  2 RMS(Cart)=  0.02122543 RMS(Int)=  0.00073086
 Iteration  3 RMS(Cart)=  0.00001992 RMS(Int)=  0.00073058
 Iteration  4 RMS(Cart)=  0.00000001 RMS(Int)=  0.00073058
 Variable       Old X    -DE/DX   Delta X   Delta X   Delta X     New X
                                 (Linear)    (Quad)   (Total)
    R1        2.06120  -0.00302   0.00000  -0.00800  -0.00800   2.05321
    R2        2.05736  -0.00368   0.00000  -0.00967  -0.00967   2.04770
    R3        2.81097  -0.10418   0.00000  -0.28305  -0.28305   2.52792
    R4        2.82248   0.00031   0.00000   0.00084   0.00084   2.82333
    R5        2.53398   0.01328   0.00000   0.02211   0.02211   2.55609
    R6        2.07054   0.00114   0.00000   0.00306   0.00306   2.07360
    R7        2.06137   0.00047   0.00000   0.00125   0.00125   2.06262
    R8        2.07096   0.00096   0.00000   0.00258   0.00258   2.07355
    R9        1.84267  -0.00219   0.00000  -0.00395  -0.00395   1.83871
    A1        2.06895   0.00224   0.00000   0.02145   0.01897   2.08792
    A2        2.09951  -0.00037   0.00000   0.00728   0.00485   2.10436
    A3        2.07042  -0.00034   0.00000   0.00744   0.00501   2.07543
    A4        2.17495  -0.00177   0.00000  -0.00639  -0.00639   2.16856
    A5        2.15200  -0.00114   0.00000  -0.00415  -0.00416   2.14784
    A6        1.95550   0.00290   0.00000   0.01026   0.01025   1.96576
    A7        1.90939   0.00187   0.00000   0.01060   0.01058   1.91998
    A8        1.94130  -0.00067   0.00000  -0.00430  -0.00429   1.93701
    A9        1.91963   0.00112   0.00000   0.00584   0.00582   1.92545
   A10        1.90732  -0.00068   0.00000  -0.00360  -0.00359   1.90373
   A11        1.87603  -0.00097   0.00000  -0.00344  -0.00349   1.87254
   A12        1.90895  -0.00069   0.00000  -0.00513  -0.00513   1.90383
   A13        1.94469  -0.00202   0.00000  -0.01059  -0.01059   1.93410
    D1        3.03482   0.00235   0.00000   0.05266   0.05285   3.08767
    D2       -0.15117   0.00206   0.00000   0.04461   0.04483  -0.10634
    D3        0.21310  -0.00340   0.00000  -0.07797  -0.07819   0.13491
    D4       -2.97289  -0.00369   0.00000  -0.08602  -0.08621  -3.05910
    D5       -2.15296   0.00007   0.00000  -0.00109  -0.00108  -2.15403
    D6       -0.04423   0.00004   0.00000  -0.00132  -0.00133  -0.04556
    D7        2.07341  -0.00053   0.00000  -0.00668  -0.00671   2.06669
    D8        1.02867   0.00041   0.00000   0.00645   0.00648   1.03515
    D9        3.13740   0.00038   0.00000   0.00622   0.00622  -3.13956
   D10       -1.02815  -0.00019   0.00000   0.00085   0.00084  -1.02731
   D11        0.06443   0.00004   0.00000   0.00134   0.00136   0.06578
   D12       -3.11659  -0.00031   0.00000  -0.00615  -0.00616  -3.12275
         Item               Value     Threshold  Converged?
 Maximum Force            0.104180     0.000450     NO 
 RMS     Force            0.018089     0.000300     NO 
 Maximum Displacement     0.187625     0.001800     NO 
 RMS     Displacement     0.075280     0.001200     NO 
 Predicted change in Energy=-1.696225D-02
 GradGradGradGradGradGradGradGradGradGradGradGradGradGradGradGradGradGrad

                          Input orientation:                          
 ---------------------------------------------------------------------
 Center     Atomic      Atomic             Coordinates (Angstroms)
 Number     Number       Type             X           Y           Z
 ---------------------------------------------------------------------
      1          6           0        0.144106   -0.419274    1.087412
      2          1           0        0.444234   -1.451895    1.242729
      3          1           0        0.463771    0.342729    1.788369
      4          6           0       -0.784529   -0.110484    0.175397
      5          6           0       -1.305722    1.269789   -0.059888
      6          1           0       -2.396640    1.284212    0.057416
      7          1           0       -0.862211    1.979722    0.640570
      8          1           0       -1.083727    1.591286   -1.085251
      9          8           0       -1.311448   -1.018237   -0.677791
     10          1           0       -0.967580   -1.909000   -0.490606
 ---------------------------------------------------------------------
                    Distance matrix (angstroms):
                    1          2          3          4          5
     1  C    0.000000
     2  H    1.086511   0.000000
     3  H    1.083594   1.875842   0.000000
     4  C    1.337717   2.109133   2.089338   0.000000
     5  C    2.504244   3.488084   2.721507   1.494040   0.000000
     6  H    3.227716   4.118473   3.473404   2.134947   1.097301
     7  H    2.639607   3.720940   2.399045   2.142751   1.091489
     8  H    3.204745   4.124938   3.494472   2.138872   1.097274
     9  O    2.365024   2.637969   3.329501   1.352624   2.370001
    10  H    2.438292   2.281801   3.508956   1.926584   3.225609
                    6          7          8          9         10
     6  H    0.000000
     7  H    1.782772   0.000000
     8  H    1.767405   1.782809   0.000000
     9  O    2.649423   3.305700   2.650942   0.000000
    10  H    3.541065   4.051274   3.552336   0.973006   0.000000
 Stoichiometry    C3H6O
 Framework group  C1[X(C3H6O)]
 Deg. of freedom    24
 Full point group                 C1      NOp   1
 Largest Abelian subgroup         C1      NOp   1
 Largest concise Abelian subgroup C1      NOp   1
                         Standard orientation:                         
 ---------------------------------------------------------------------
 Center     Atomic      Atomic             Coordinates (Angstroms)
 Number     Number       Type             X           Y           Z
 ---------------------------------------------------------------------
      1          6           0       -0.889858   -1.103007   -0.025158
      2          1           0       -1.967029   -0.974100    0.034773
      3          1           0       -0.463208   -2.094991    0.064916
      4          6           0       -0.074802   -0.042826    0.009301
      5          6           0        1.416761   -0.128257   -0.000474
      6          1           0        1.828002    0.385902    0.877359
      7          1           0        1.748752   -1.168004    0.007089
      8          1           0        1.821209    0.370971   -0.889970
      9          8           0       -0.523104    1.233294   -0.002227
     10          1           0       -1.495493    1.258409    0.021641
 ---------------------------------------------------------------------
 Rotational constants (GHZ):          10.2553873           9.0636944           4.9613813
 Standard basis: 6-31+G(d) (6D, 7F)
 There are    88 symmetry adapted cartesian basis functions of A   symmetry.
 There are    88 symmetry adapted basis functions of A   symmetry.
    88 basis functions,   152 primitive gaussians,    88 cartesian basis functions
    16 alpha electrons       16 beta electrons
       nuclear repulsion energy       120.6638533556 Hartrees.
 NAtoms=   10 NActive=   10 NUniq=   10 SFac= 1.00D+00 NAtFMM=   60 NAOKFM=F Big=F
 Integral buffers will be    131072 words long.
 Raffenetti 2 integral format.
 Two-electron integral symmetry is turned on.
 Nuclear repulsion after empirical dispersion term =      120.6538425544 Hartrees.
 ------------------------------------------------------------------------------
 Polarizable Continuum Model (PCM)
 =================================
 Model                : PCM.
 Atomic radii         : UFF (Universal Force Field).
 Polarization charges : Total charges.
 Charge compensation  : None.
 Solution method      : On-the-fly selection.
 Cavity type          : Scaled VdW (van der Waals Surface) (Alpha=1.100).
 Cavity algorithm     : GePol (No added spheres)
                        Default sphere list used, NSphG=   10.
                        Lebedev-Laikov grids with approx.  5.0 points / Ang**2.
                        Smoothing algorithm: York/Karplus (Gamma=1.0000).
                        Polarization charges: spherical gaussians, with
                                              point-specific exponents (IZeta= 3).
                        Self-potential: point-specific (ISelfS= 7).
                        Self-field    : sphere-specific E.n sum rule (ISelfD= 2).
 1st derivatives      : Analytical E(r).r(x)/FMM algorithm (CHGder, D1EAlg=3).
                        Cavity 1st derivative terms included.
 Solvent              : Water, Eps=  78.355300 Eps(inf)=   1.777849
 ------------------------------------------------------------------------------
 Spheres list:
 ISph  on   Nord     Re0    Alpha      Xe            Ye            Ze
    1   C      1    1.9255  1.100     -0.889858     -1.103007     -0.025158
    2   H      2    1.4430  1.100     -1.967029     -0.974100      0.034773
    3   H      3    1.4430  1.100     -0.463208     -2.094991      0.064916
    4   C      4    1.9255  1.100     -0.074802     -0.042826      0.009301
    5   C      5    1.9255  1.100      1.416761     -0.128257     -0.000474
    6   H      6    1.4430  1.100      1.828002      0.385902      0.877359
    7   H      7    1.4430  1.100      1.748752     -1.168004      0.007089
    8   H      8    1.4430  1.100      1.821209      0.370971     -0.889970
    9   O      9    1.7500  1.100     -0.523104      1.233294     -0.002227
   10   H     10    1.4430  1.100     -1.495493      1.258409      0.021641
 ------------------------------------------------------------------------------
 One-electron integrals computed using PRISM.
 PrsmSu:  requested number of processors reduced to:  30 ShMem   1 Linda.
 NBasis=    88 RedAO= T EigKep=  6.79D-05  NBF=    88
 NBsUse=    88 1.00D-06 EigRej= -1.00D+00 NBFU=    88
 Initial guess from the checkpoint file:  "xichun.chk"
 B after Tr=     0.000000   -0.000000    0.000000
         Rot=    0.988330   -0.000005   -0.000188   -0.152327 Ang= -17.52 deg.
 ExpMin= 4.38D-02 ExpMax= 5.48D+03 ExpMxC= 8.25D+02 IAcc=3 IRadAn=         5 AccDes= 0.00D+00
 Harris functional with IExCor=  402 and IRadAn=       5 diagonalized for initial guess.
 HarFok:  IExCor=  402 AccDes= 0.00D+00 IRadAn=         5 IDoV= 1 UseB2=F ITyADJ=14
 ICtDFT=  3500011 ScaDFX=  1.000000  1.000000  1.000000  1.000000
 FoFCou: FMM=F IPFlag=           0 FMFlag=      100000 FMFlg1=           0
         NFxFlg=           0 DoJE=T BraDBF=F KetDBF=T FulRan=T
         wScrn=  0.000000 ICntrl=       500 IOpCl=  0 I1Cent=   200000004 NGrid=           0
         NMat0=    1 NMatS0=      1 NMatT0=    0 NMatD0=    1 NMtDS0=    0 NMtDT0=    0
 Petite list used in FoFCou.
 Keep R1 ints in memory in canonical form, NReq=36921278.
 Requested convergence on RMS density matrix=1.00D-08 within 128 cycles.
 Requested convergence on MAX density matrix=1.00D-06.
 Requested convergence on             energy=1.00D-06.
 No special actions if energy rises.
 Inv3:  Mode=1 IEnd=     2413827.
 Iteration    1 A*A^-1 deviation from unit magnitude is 4.00D-15 for    891.
 Iteration    1 A*A^-1 deviation from orthogonality  is 1.59D-15 for    600      3.
 Iteration    1 A^-1*A deviation from unit magnitude is 4.22D-15 for    891.
 Iteration    1 A^-1*A deviation from orthogonality  is 1.65D-15 for    892    746.
 Error on total polarization charges =  0.01349
 SCF Done:  E(RB3LYP) =  -193.154692902     A.U. after   11 cycles
            NFock= 11  Conv=0.54D-08     -V/T= 2.0096
 PrsmSu:  requested number of processors reduced to:  30 ShMem   1 Linda.
 D1PCM: PCM CHGder 1st derivatives, ID1Alg=3 FixD1E=F DoIter=F DoCFld=F I1PDM=0.
 CoulSu:  requested number of processors reduced to:  30 ShMem   1 Linda.
 CoulSu:  requested number of processors reduced to:  30 ShMem   1 Linda.
 Calling FoFJK, ICntrl=      2127 FMM=F ISym2X=0 I1Cent= 0 IOpClX= 0 NMat=1 NMatS=1 NMatT=0.
 ***** Axes restored to original set *****
 -------------------------------------------------------------------
 Center     Atomic                   Forces (Hartrees/Bohr)
 Number     Number              X              Y              Z
 -------------------------------------------------------------------
      1        6          -0.004360145   -0.001469716    0.008411124
      2        1           0.004101197    0.000499611    0.001044534
      3        1           0.004381917   -0.001529485   -0.000114488
      4        6           0.010420508    0.008566853    0.005752810
      5        6          -0.004512237   -0.000331760   -0.002939478
      6        1          -0.000123420    0.001193701   -0.000088369
      7        1           0.000033038    0.000112234   -0.000048861
      8        1          -0.000128615    0.000613042    0.000158172
      9        8          -0.010157988   -0.008884735   -0.012481764
     10        1           0.000345746    0.001230255    0.000306319
 -------------------------------------------------------------------
 Cartesian Forces:  Max     0.012481764 RMS     0.004889927

 GradGradGradGradGradGradGradGradGradGradGradGradGradGradGradGradGradGrad
 Berny optimization.
 Using GEDIIS/GDIIS optimizer.
 FormGI is forming the generalized inverse of G from B-inverse, IUseBI=4.
 Internal  Forces:  Max     0.016637817 RMS     0.003990550
 Search for a local minimum.
 Step number   2 out of a maximum of   44
 All quantities printed in internal units (Hartrees-Bohrs-Radians)
 Mixed Optimization -- RFO/linear search
 Update second derivatives using D2CorX and points    1    2
 DE= -1.70D-02 DEPred=-1.70D-02 R= 1.00D+00
 TightC=F SS=  1.41D+00  RLast= 3.17D-01 DXNew= 5.0454D-01 9.4970D-01
 Trust test= 1.00D+00 RLast= 3.17D-01 DXMaxT set to 5.05D-01
 ITU=  1  0
 Use linear search instead of GDIIS.
     Eigenvalues ---    0.00851   0.00932   0.01056   0.01134   0.02473
     Eigenvalues ---    0.07296   0.07489   0.15898   0.16000   0.16000
     Eigenvalues ---    0.16000   0.16000   0.16038   0.24731   0.24983
     Eigenvalues ---    0.32887   0.34139   0.34163   0.34717   0.34720
     Eigenvalues ---    0.34961   0.39975   0.52345   0.58269
 RFO step:  Lambda=-3.74665048D-03 EMin= 8.50698391D-03
 Quartic linear search produced a step of -0.03823.
 Iteration  1 RMS(Cart)=  0.05116447 RMS(Int)=  0.01319905
 Iteration  2 RMS(Cart)=  0.01073733 RMS(Int)=  0.00749754
 Iteration  3 RMS(Cart)=  0.00021588 RMS(Int)=  0.00749384
 Iteration  4 RMS(Cart)=  0.00000319 RMS(Int)=  0.00749384
 Iteration  5 RMS(Cart)=  0.00000007 RMS(Int)=  0.00749384
 Variable       Old X    -DE/DX   Delta X   Delta X   Delta X     New X
                                 (Linear)    (Quad)   (Total)
    R1        2.05321   0.00081   0.00031   0.00131   0.00162   2.05483
    R2        2.04770   0.00015   0.00037  -0.00067  -0.00030   2.04739
    R3        2.52792   0.00981   0.01082  -0.00392   0.00690   2.53482
    R4        2.82333   0.00358  -0.00003   0.01032   0.01028   2.83361
    R5        2.55609   0.01664  -0.00085   0.02999   0.02914   2.58523
    R6        2.07360   0.00013  -0.00012   0.00070   0.00058   2.07418
    R7        2.06262   0.00005  -0.00005   0.00028   0.00024   2.06285
    R8        2.07355   0.00001  -0.00010   0.00031   0.00021   2.07375
    R9        1.83871  -0.00094   0.00015  -0.00212  -0.00197   1.83675
    A1        2.08792  -0.00468  -0.00073  -0.00424  -0.03045   2.05747
    A2        2.10436   0.00264  -0.00019   0.03626   0.01122   2.11558
    A3        2.07543   0.00299  -0.00019   0.03835   0.01328   2.08871
    A4        2.16856   0.00317   0.00024   0.01167   0.01170   2.18026
    A5        2.14784   0.00410   0.00016   0.01549   0.01544   2.16328
    A6        1.96576  -0.00724  -0.00039  -0.02555  -0.02616   1.93960
    A7        1.91998   0.00170  -0.00040   0.01238   0.01195   1.93193
    A8        1.93701  -0.00043   0.00016  -0.00417  -0.00400   1.93301
    A9        1.92545   0.00065  -0.00022   0.00455   0.00430   1.92976
   A10        1.90373  -0.00069   0.00014  -0.00458  -0.00444   1.89929
   A11        1.87254  -0.00078   0.00013  -0.00290  -0.00281   1.86973
   A12        1.90383  -0.00048   0.00020  -0.00545  -0.00526   1.89857
   A13        1.93410  -0.00161   0.00040  -0.01082  -0.01041   1.92369
    D1        3.08767   0.00210  -0.00202   0.16335   0.15868  -3.03684
    D2       -0.10634   0.00264  -0.00171   0.20366   0.19981   0.09347
    D3        0.13491  -0.00314   0.00299  -0.26088  -0.25575  -0.12084
    D4       -3.05910  -0.00260   0.00330  -0.22058  -0.21462   3.00946
    D5       -2.15403   0.00056   0.00004   0.02261   0.02252  -2.13152
    D6       -0.04556   0.00054   0.00005   0.02236   0.02225  -0.02331
    D7        2.06669   0.00008   0.00026   0.01578   0.01586   2.08255
    D8        1.03515  -0.00020  -0.00025  -0.01496  -0.01503   1.02011
    D9       -3.13956  -0.00022  -0.00024  -0.01522  -0.01530   3.12832
   D10       -1.02731  -0.00068  -0.00003  -0.02180  -0.02169  -1.04900
   D11        0.06578  -0.00059  -0.00005  -0.02699  -0.02693   0.03886
   D12       -3.12275   0.00013   0.00024   0.00997   0.01009  -3.11266
         Item               Value     Threshold  Converged?
 Maximum Force            0.016638     0.000450     NO 
 RMS     Force            0.003991     0.000300     NO 
 Maximum Displacement     0.155802     0.001800     NO 
 RMS     Displacement     0.054634     0.001200     NO 
 Predicted change in Energy=-2.029896D-03
 GradGradGradGradGradGradGradGradGradGradGradGradGradGradGradGradGradGrad

                          Input orientation:                          
 ---------------------------------------------------------------------
 Center     Atomic      Atomic             Coordinates (Angstroms)
 Number     Number       Type             X           Y           Z
 ---------------------------------------------------------------------
      1          6           0        0.080956   -0.438293    1.160243
      2          1           0        0.492851   -1.441942    1.233731
      3          1           0        0.546217    0.344595    1.747138
      4          6           0       -0.793755   -0.114738    0.196158
      5          6           0       -1.314631    1.267542   -0.061595
      6          1           0       -2.409877    1.288372    0.007278
      7          1           0       -0.902897    1.976669    0.658984
      8          1           0       -1.048129    1.597436   -1.073720
      9          8           0       -1.318086   -1.013025   -0.692497
     10          1           0       -0.992397   -1.907766   -0.497360
 ---------------------------------------------------------------------
                    Distance matrix (angstroms):
                    1          2          3          4          5
     1  C    0.000000
     2  H    1.087368   0.000000
     3  H    1.083433   1.859610   0.000000
     4  C    1.341368   2.119760   2.100489   0.000000
     5  C    2.520005   3.505162   2.754288   1.499482   0.000000
     6  H    3.242676   4.169488   3.557573   2.148545   1.097607
     7  H    2.655423   3.737024   2.438786   2.144785   1.091614
     8  H    3.226394   4.115431   3.474017   2.146820   1.097383
     9  O    2.391711   2.678398   3.357168   1.368046   2.366228
    10  H    2.461521   2.328010   3.532455   1.932712   3.221228
                    6          7          8          9         10
     6  H    0.000000
     7  H    1.780298   0.000000
     8  H    1.765909   1.779656   0.000000
     9  O    2.641613   3.307137   2.651927   0.000000
    10  H    3.532592   4.053885   3.552709   0.971964   0.000000
 Stoichiometry    C3H6O
 Framework group  C1[X(C3H6O)]
 Deg. of freedom    24
 Full point group                 C1      NOp   1
 Largest Abelian subgroup         C1      NOp   1
 Largest concise Abelian subgroup C1      NOp   1
                         Standard orientation:                         
 ---------------------------------------------------------------------
 Center     Atomic      Atomic             Coordinates (Angstroms)
 Number     Number       Type             X           Y           Z
 ---------------------------------------------------------------------
      1          6           0       -0.957316   -1.064693    0.025959
      2          1           0       -2.026753   -0.889543   -0.063459
      3          1           0       -0.599571   -2.081572   -0.082678
      4          6           0       -0.082687   -0.047808    0.010518
      5          6           0        1.409122   -0.198861   -0.001126
      6          1           0        1.857400    0.312106    0.860675
      7          1           0        1.691426   -1.252924    0.028453
      8          1           0        1.835616    0.255895   -0.904204
      9          8           0       -0.445003    1.271236   -0.009456
     10          1           0       -1.412805    1.354319    0.024757
 ---------------------------------------------------------------------
 Rotational constants (GHZ):          10.0640673           9.0398485           4.9095202
 Standard basis: 6-31+G(d) (6D, 7F)
 There are    88 symmetry adapted cartesian basis functions of A   symmetry.
 There are    88 symmetry adapted basis functions of A   symmetry.
    88 basis functions,   152 primitive gaussians,    88 cartesian basis functions
    16 alpha electrons       16 beta electrons
       nuclear repulsion energy       120.0923690153 Hartrees.
 NAtoms=   10 NActive=   10 NUniq=   10 SFac= 1.00D+00 NAtFMM=   60 NAOKFM=F Big=F
 Integral buffers will be    131072 words long.
 Raffenetti 2 integral format.
 Two-electron integral symmetry is turned on.
 Nuclear repulsion after empirical dispersion term =      120.0823964640 Hartrees.
 ------------------------------------------------------------------------------
 Polarizable Continuum Model (PCM)
 =================================
 Model                : PCM.
 Atomic radii         : UFF (Universal Force Field).
 Polarization charges : Total charges.
 Charge compensation  : None.
 Solution method      : On-the-fly selection.
 Cavity type          : Scaled VdW (van der Waals Surface) (Alpha=1.100).
 Cavity algorithm     : GePol (No added spheres)
                        Default sphere list used, NSphG=   10.
                        Lebedev-Laikov grids with approx.  5.0 points / Ang**2.
                        Smoothing algorithm: York/Karplus (Gamma=1.0000).
                        Polarization charges: spherical gaussians, with
                                              point-specific exponents (IZeta= 3).
                        Self-potential: point-specific (ISelfS= 7).
                        Self-field    : sphere-specific E.n sum rule (ISelfD= 2).
 1st derivatives      : Analytical E(r).r(x)/FMM algorithm (CHGder, D1EAlg=3).
                        Cavity 1st derivative terms included.
 Solvent              : Water, Eps=  78.355300 Eps(inf)=   1.777849
 ------------------------------------------------------------------------------
 Spheres list:
 ISph  on   Nord     Re0    Alpha      Xe            Ye            Ze
    1   C      1    1.9255  1.100     -0.957316     -1.064693      0.025959
    2   H      2    1.4430  1.100     -2.026753     -0.889543     -0.063459
    3   H      3    1.4430  1.100     -0.599571     -2.081572     -0.082678
    4   C      4    1.9255  1.100     -0.082687     -0.047808      0.010518
    5   C      5    1.9255  1.100      1.409122     -0.198861     -0.001126
    6   H      6    1.4430  1.100      1.857400      0.312106      0.860675
    7   H      7    1.4430  1.100      1.691426     -1.252924      0.028453
    8   H      8    1.4430  1.100      1.835616      0.255895     -0.904204
    9   O      9    1.7500  1.100     -0.445003      1.271236     -0.009456
   10   H     10    1.4430  1.100     -1.412805      1.354319      0.024757
 ------------------------------------------------------------------------------
 One-electron integrals computed using PRISM.
 PrsmSu:  requested number of processors reduced to:  30 ShMem   1 Linda.
 NBasis=    88 RedAO= T EigKep=  6.58D-05  NBF=    88
 NBsUse=    88 1.00D-06 EigRej= -1.00D+00 NBFU=    88
 Initial guess from the checkpoint file:  "xichun.chk"
 B after Tr=    -0.000000    0.000000    0.000000
         Rot=    0.999614    0.001230   -0.000310    0.027769 Ang=   3.19 deg.
 ExpMin= 4.38D-02 ExpMax= 5.48D+03 ExpMxC= 8.25D+02 IAcc=3 IRadAn=         5 AccDes= 0.00D+00
 Harris functional with IExCor=  402 and IRadAn=       5 diagonalized for initial guess.
 HarFok:  IExCor=  402 AccDes= 0.00D+00 IRadAn=         5 IDoV= 1 UseB2=F ITyADJ=14
 ICtDFT=  3500011 ScaDFX=  1.000000  1.000000  1.000000  1.000000
 FoFCou: FMM=F IPFlag=           0 FMFlag=      100000 FMFlg1=           0
         NFxFlg=           0 DoJE=T BraDBF=F KetDBF=T FulRan=T
         wScrn=  0.000000 ICntrl=       500 IOpCl=  0 I1Cent=   200000004 NGrid=           0
         NMat0=    1 NMatS0=      1 NMatT0=    0 NMatD0=    1 NMtDS0=    0 NMtDT0=    0
 Petite list used in FoFCou.
 Keep R1 ints in memory in canonical form, NReq=36921278.
 Requested convergence on RMS density matrix=1.00D-08 within 128 cycles.
 Requested convergence on MAX density matrix=1.00D-06.
 Requested convergence on             energy=1.00D-06.
 No special actions if energy rises.
 Inv3:  Mode=1 IEnd=     2446227.
 Iteration    1 A*A^-1 deviation from unit magnitude is 3.33D-15 for    894.
 Iteration    1 A*A^-1 deviation from orthogonality  is 1.56D-15 for    892    851.
 Iteration    1 A^-1*A deviation from unit magnitude is 3.55D-15 for    894.
 Iteration    1 A^-1*A deviation from orthogonality  is 1.64D-15 for    870    200.
 Error on total polarization charges =  0.01340
 SCF Done:  E(RB3LYP) =  -193.155115617     A.U. after   11 cycles
            NFock= 11  Conv=0.61D-08     -V/T= 2.0099
 PrsmSu:  requested number of processors reduced to:  30 ShMem   1 Linda.
 D1PCM: PCM CHGder 1st derivatives, ID1Alg=3 FixD1E=F DoIter=F DoCFld=F I1PDM=0.
 CoulSu:  requested number of processors reduced to:  30 ShMem   1 Linda.
 CoulSu:  requested number of processors reduced to:  30 ShMem   1 Linda.
 Calling FoFJK, ICntrl=      2127 FMM=F ISym2X=0 I1Cent= 0 IOpClX= 0 NMat=1 NMatS=1 NMatT=0.
 ***** Axes restored to original set *****
 -------------------------------------------------------------------
 Center     Atomic                   Forces (Hartrees/Bohr)
 Number     Number              X              Y              Z
 -------------------------------------------------------------------
      1        6           0.006352258    0.000029553   -0.006569802
      2        1          -0.001505120   -0.000731682    0.002893157
      3        1          -0.002433089   -0.000660311    0.003622328
      4        6           0.001556423    0.005406850    0.002445396
      5        6          -0.001307163   -0.000421680   -0.000678613
      6        1           0.000376325   -0.000110916    0.000232047
      7        1           0.000072835    0.000409717    0.000184353
      8        1           0.000200863   -0.000324229    0.000120009
      9        8          -0.004047005   -0.003221321   -0.002144074
     10        1           0.000733672   -0.000375981   -0.000104801
 -------------------------------------------------------------------
 Cartesian Forces:  Max     0.006569802 RMS     0.002495087

 GradGradGradGradGradGradGradGradGradGradGradGradGradGradGradGradGradGrad
 Berny optimization.
 Using GEDIIS/GDIIS optimizer.
 FormGI is forming the generalized inverse of G from B-inverse, IUseBI=4.
 Internal  Forces:  Max     0.005095586 RMS     0.001617036
 Search for a local minimum.
 Step number   3 out of a maximum of   44
 All quantities printed in internal units (Hartrees-Bohrs-Radians)
 Mixed Optimization -- RFO/linear search
 Update second derivatives using D2CorX and points    2    3
 DE= -4.23D-04 DEPred=-2.03D-03 R= 2.08D-01
 Trust test= 2.08D-01 RLast= 4.28D-01 DXMaxT set to 5.05D-01
 ITU=  0  1  0
 Use linear search instead of GDIIS.
     Eigenvalues ---    0.00850   0.00935   0.01077   0.02445   0.03008
     Eigenvalues ---    0.07293   0.07386   0.14452   0.16000   0.16000
     Eigenvalues ---    0.16000   0.16005   0.16040   0.23343   0.25088
     Eigenvalues ---    0.32762   0.34139   0.34167   0.34716   0.34720
     Eigenvalues ---    0.34965   0.39601   0.49860   0.52390
 RFO step:  Lambda=-8.43350998D-04 EMin= 8.50465296D-03
 Quartic linear search produced a step of -0.43260.
 Iteration  1 RMS(Cart)=  0.03798145 RMS(Int)=  0.00296244
 Iteration  2 RMS(Cart)=  0.00289511 RMS(Int)=  0.00079899
 Iteration  3 RMS(Cart)=  0.00000759 RMS(Int)=  0.00079896
 Iteration  4 RMS(Cart)=  0.00000000 RMS(Int)=  0.00079896
 Variable       Old X    -DE/DX   Delta X   Delta X   Delta X     New X
                                 (Linear)    (Quad)   (Total)
    R1        2.05483   0.00030  -0.00070   0.00168   0.00098   2.05581
    R2        2.04739   0.00044   0.00013   0.00055   0.00068   2.04807
    R3        2.53482   0.00186  -0.00298   0.00951   0.00652   2.54134
    R4        2.83361  -0.00016  -0.00445   0.00696   0.00251   2.83612
    R5        2.58523   0.00510  -0.01261   0.02553   0.01292   2.59816
    R6        2.07418  -0.00036  -0.00025  -0.00022  -0.00047   2.07371
    R7        2.06285   0.00042  -0.00010   0.00085   0.00075   2.06360
    R8        2.07375  -0.00016  -0.00009  -0.00014  -0.00023   2.07353
    R9        1.83675   0.00057   0.00085  -0.00075   0.00010   1.83685
    A1        2.05747  -0.00123   0.01317  -0.02242  -0.00658   2.05089
    A2        2.11558   0.00148  -0.00485   0.01663   0.01445   2.13003
    A3        2.08871   0.00107  -0.00575   0.01661   0.01354   2.10225
    A4        2.18026   0.00167  -0.00506   0.01206   0.00670   2.18695
    A5        2.16328  -0.00089  -0.00668   0.00884   0.00186   2.16513
    A6        1.93960  -0.00077   0.01132  -0.02028  -0.00927   1.93033
    A7        1.93193  -0.00017  -0.00517   0.00774   0.00258   1.93451
    A8        1.93301   0.00036   0.00173  -0.00151   0.00022   1.93323
    A9        1.92976  -0.00052  -0.00186   0.00110  -0.00075   1.92901
   A10        1.89929  -0.00008   0.00192  -0.00335  -0.00143   1.89786
   A11        1.86973   0.00036   0.00122  -0.00065   0.00059   1.87032
   A12        1.89857   0.00006   0.00227  -0.00355  -0.00128   1.89729
   A13        1.92369  -0.00031   0.00450  -0.00836  -0.00386   1.91983
    D1       -3.03684  -0.00326  -0.06864  -0.05214  -0.12078   3.12557
    D2        0.09347  -0.00235  -0.08644   0.02297  -0.06349   0.02998
    D3       -0.12084   0.00344   0.11064   0.00114   0.11180  -0.00904
    D4        3.00946   0.00436   0.09285   0.07625   0.16909  -3.10463
    D5       -2.13152   0.00045  -0.00974   0.03899   0.02927  -2.10225
    D6       -0.02331   0.00047  -0.00963   0.03893   0.02933   0.00602
    D7        2.08255   0.00044  -0.00686   0.03419   0.02737   2.10993
    D8        1.02011  -0.00036   0.00650  -0.02795  -0.02148   0.99863
    D9        3.12832  -0.00034   0.00662  -0.02801  -0.02142   3.10690
   D10       -1.04900  -0.00037   0.00938  -0.03274  -0.02338  -1.07238
   D11        0.03886  -0.00091   0.01165  -0.05027  -0.03854   0.00031
   D12       -3.11266  -0.00009  -0.00436   0.01592   0.01148  -3.10118
         Item               Value     Threshold  Converged?
 Maximum Force            0.005096     0.000450     NO 
 RMS     Force            0.001617     0.000300     NO 
 Maximum Displacement     0.096215     0.001800     NO 
 RMS     Displacement     0.037627     0.001200     NO 
 Predicted change in Energy=-9.426107D-04
 GradGradGradGradGradGradGradGradGradGradGradGradGradGradGradGradGradGrad

                          Input orientation:                          
 ---------------------------------------------------------------------
 Center     Atomic      Atomic             Coordinates (Angstroms)
 Number     Number       Type             X           Y           Z
 ---------------------------------------------------------------------
      1          6           0        0.126578   -0.430803    1.126592
      2          1           0        0.479904   -1.450622    1.263065
      3          1           0        0.513238    0.326986    1.798052
      4          6           0       -0.762286   -0.105507    0.171268
      5          6           0       -1.312878    1.269817   -0.069078
      6          1           0       -2.405272    1.276676    0.034968
      7          1           0       -0.888619    1.985728    0.638001
      8          1           0       -1.082662    1.603606   -1.088673
      9          8           0       -1.331502   -1.012046   -0.691570
     10          1           0       -0.996250   -1.904986   -0.504267
 ---------------------------------------------------------------------
                    Distance matrix (angstroms):
                    1          2          3          4          5
     1  C    0.000000
     2  H    1.087886   0.000000
     3  H    1.083794   1.856668   0.000000
     4  C    1.344820   2.131758   2.111975   0.000000
     5  C    2.528591   3.519867   2.776653   1.500811   0.000000
     6  H    3.243053   4.155793   3.539502   2.151374   1.097359
     7  H    2.666265   3.751275   2.462183   2.146407   1.092008
     8  H    3.241679   4.159398   3.536925   2.147361   1.097264
     9  O    2.401990   2.700767   3.375543   1.374885   2.365321
    10  H    2.468534   2.347113   3.544140   1.936288   3.220096
                    6          7          8          9         10
     6  H    0.000000
     7  H    1.779505   0.000000
     8  H    1.765998   1.779064   0.000000
     9  O    2.630415   3.309161   2.657300   0.000000
    10  H    3.521234   4.056355   3.557979   0.972018   0.000000
 Stoichiometry    C3H6O
 Framework group  C1[X(C3H6O)]
 Deg. of freedom    24
 Full point group                 C1      NOp   1
 Largest Abelian subgroup         C1      NOp   1
 Largest concise Abelian subgroup C1      NOp   1
                         Standard orientation:                         
 ---------------------------------------------------------------------
 Center     Atomic      Atomic             Coordinates (Angstroms)
 Number     Number       Type             X           Y           Z
 ---------------------------------------------------------------------
      1          6           0       -0.993959   -1.039310    0.000225
      2          1           0       -2.063556   -0.840670    0.000092
      3          1           0       -0.677298   -2.075620    0.020178
      4          6           0       -0.084350   -0.048904   -0.015546
      5          6           0        1.404362   -0.238176    0.003070
      6          1           0        1.848985    0.249721    0.879692
      7          1           0        1.659438   -1.299742    0.025364
      8          1           0        1.860908    0.214867   -0.885922
      9          8           0       -0.402175    1.288638    0.001048
     10          1           0       -1.367398    1.400680    0.025724
 ---------------------------------------------------------------------
 Rotational constants (GHZ):           9.9965298           9.0092933           4.8829086
 Standard basis: 6-31+G(d) (6D, 7F)
 There are    88 symmetry adapted cartesian basis functions of A   symmetry.
 There are    88 symmetry adapted basis functions of A   symmetry.
    88 basis functions,   152 primitive gaussians,    88 cartesian basis functions
    16 alpha electrons       16 beta electrons
       nuclear repulsion energy       119.8093524724 Hartrees.
 NAtoms=   10 NActive=   10 NUniq=   10 SFac= 1.00D+00 NAtFMM=   60 NAOKFM=F Big=F
 Integral buffers will be    131072 words long.
 Raffenetti 2 integral format.
 Two-electron integral symmetry is turned on.
 Nuclear repulsion after empirical dispersion term =      119.7994026429 Hartrees.
 ------------------------------------------------------------------------------
 Polarizable Continuum Model (PCM)
 =================================
 Model                : PCM.
 Atomic radii         : UFF (Universal Force Field).
 Polarization charges : Total charges.
 Charge compensation  : None.
 Solution method      : On-the-fly selection.
 Cavity type          : Scaled VdW (van der Waals Surface) (Alpha=1.100).
 Cavity algorithm     : GePol (No added spheres)
                        Default sphere list used, NSphG=   10.
                        Lebedev-Laikov grids with approx.  5.0 points / Ang**2.
                        Smoothing algorithm: York/Karplus (Gamma=1.0000).
                        Polarization charges: spherical gaussians, with
                                              point-specific exponents (IZeta= 3).
                        Self-potential: point-specific (ISelfS= 7).
                        Self-field    : sphere-specific E.n sum rule (ISelfD= 2).
 1st derivatives      : Analytical E(r).r(x)/FMM algorithm (CHGder, D1EAlg=3).
                        Cavity 1st derivative terms included.
 Solvent              : Water, Eps=  78.355300 Eps(inf)=   1.777849
 ------------------------------------------------------------------------------
 Spheres list:
 ISph  on   Nord     Re0    Alpha      Xe            Ye            Ze
    1   C      1    1.9255  1.100     -0.993959     -1.039310      0.000225
    2   H      2    1.4430  1.100     -2.063556     -0.840670      0.000092
    3   H      3    1.4430  1.100     -0.677298     -2.075620      0.020178
    4   C      4    1.9255  1.100     -0.084350     -0.048904     -0.015546
    5   C      5    1.9255  1.100      1.404362     -0.238176      0.003070
    6   H      6    1.4430  1.100      1.848985      0.249721      0.879692
    7   H      7    1.4430  1.100      1.659438     -1.299742      0.025364
    8   H      8    1.4430  1.100      1.860908      0.214867     -0.885922
    9   O      9    1.7500  1.100     -0.402175      1.288638      0.001048
   10   H     10    1.4430  1.100     -1.367398      1.400680      0.025724
 ------------------------------------------------------------------------------
 One-electron integrals computed using PRISM.
 PrsmSu:  requested number of processors reduced to:  30 ShMem   1 Linda.
 NBasis=    88 RedAO= T EigKep=  6.56D-05  NBF=    88
 NBsUse=    88 1.00D-06 EigRej= -1.00D+00 NBFU=    88
 Initial guess from the checkpoint file:  "xichun.chk"
 B after Tr=     0.000000   -0.000000   -0.000000
         Rot=    0.999883   -0.000599    0.000826    0.015258 Ang=  -1.75 deg.
 ExpMin= 4.38D-02 ExpMax= 5.48D+03 ExpMxC= 8.25D+02 IAcc=3 IRadAn=         5 AccDes= 0.00D+00
 Harris functional with IExCor=  402 and IRadAn=       5 diagonalized for initial guess.
 HarFok:  IExCor=  402 AccDes= 0.00D+00 IRadAn=         5 IDoV= 1 UseB2=F ITyADJ=14
 ICtDFT=  3500011 ScaDFX=  1.000000  1.000000  1.000000  1.000000
 FoFCou: FMM=F IPFlag=           0 FMFlag=      100000 FMFlg1=           0
         NFxFlg=           0 DoJE=T BraDBF=F KetDBF=T FulRan=T
         wScrn=  0.000000 ICntrl=       500 IOpCl=  0 I1Cent=   200000004 NGrid=           0
         NMat0=    1 NMatS0=      1 NMatT0=    0 NMatD0=    1 NMtDS0=    0 NMtDT0=    0
 Petite list used in FoFCou.
 Keep R1 ints in memory in canonical form, NReq=36921278.
 Requested convergence on RMS density matrix=1.00D-08 within 128 cycles.
 Requested convergence on MAX density matrix=1.00D-06.
 Requested convergence on             energy=1.00D-06.
 No special actions if energy rises.
 Inv3:  Mode=1 IEnd=     2419212.
 Iteration    1 A*A^-1 deviation from unit magnitude is 3.77D-15 for    857.
 Iteration    1 A*A^-1 deviation from orthogonality  is 1.76D-15 for    857    766.
 Iteration    1 A^-1*A deviation from unit magnitude is 3.77D-15 for    857.
 Iteration    1 A^-1*A deviation from orthogonality  is 1.18D-15 for    876    128.
 Error on total polarization charges =  0.01338
 SCF Done:  E(RB3LYP) =  -193.155853163     A.U. after   11 cycles
            NFock= 11  Conv=0.21D-08     -V/T= 2.0100
 PrsmSu:  requested number of processors reduced to:  30 ShMem   1 Linda.
 D1PCM: PCM CHGder 1st derivatives, ID1Alg=3 FixD1E=F DoIter=F DoCFld=F I1PDM=0.
 CoulSu:  requested number of processors reduced to:  30 ShMem   1 Linda.
 CoulSu:  requested number of processors reduced to:  30 ShMem   1 Linda.
 Calling FoFJK, ICntrl=      2127 FMM=F ISym2X=0 I1Cent= 0 IOpClX= 0 NMat=1 NMatS=1 NMatT=0.
 ***** Axes restored to original set *****
 -------------------------------------------------------------------
 Center     Atomic                   Forces (Hartrees/Bohr)
 Number     Number              X              Y              Z
 -------------------------------------------------------------------
      1        6          -0.001903774   -0.000702210   -0.003491485
      2        1          -0.000220084    0.000157422   -0.000086006
      3        1           0.000279561    0.000598610   -0.000634825
      4        6          -0.002039470    0.001743786    0.005862037
      5        6           0.001396238   -0.000070382   -0.000779650
      6        1           0.000449785   -0.000829393    0.000280123
      7        1           0.000203848    0.000322244    0.000017184
      8        1           0.000070920   -0.000004146    0.000025425
      9        8           0.001355713   -0.000667477   -0.001025158
     10        1           0.000407263   -0.000548454   -0.000167645
 -------------------------------------------------------------------
 Cartesian Forces:  Max     0.005862037 RMS     0.001486644

 GradGradGradGradGradGradGradGradGradGradGradGradGradGradGradGradGradGrad
 Berny optimization.
 Using GEDIIS/GDIIS optimizer.
 FormGI is forming the generalized inverse of G from B-inverse, IUseBI=4.
 Internal  Forces:  Max     0.004227144 RMS     0.001017239
 Search for a local minimum.
 Step number   4 out of a maximum of   44
 All quantities printed in internal units (Hartrees-Bohrs-Radians)
 Mixed Optimization -- RFO/linear search
 Update second derivatives using D2CorX and points    1    2    3    4
 DE= -7.38D-04 DEPred=-9.43D-04 R= 7.82D-01
 TightC=F SS=  1.41D+00  RLast= 2.57D-01 DXNew= 8.4853D-01 7.7114D-01
 Trust test= 7.82D-01 RLast= 2.57D-01 DXMaxT set to 7.71D-01
 ITU=  1  0  1  0
 Use linear search instead of GDIIS.
     Eigenvalues ---    0.00847   0.00933   0.01520   0.02402   0.03206
     Eigenvalues ---    0.07298   0.07379   0.13681   0.16000   0.16000
     Eigenvalues ---    0.16004   0.16014   0.16271   0.22830   0.25305
     Eigenvalues ---    0.32789   0.34139   0.34171   0.34690   0.34723
     Eigenvalues ---    0.34962   0.41022   0.48728   0.52430
 RFO step:  Lambda=-2.35274563D-04 EMin= 8.46842896D-03
 Quartic linear search produced a step of -0.17835.
 Iteration  1 RMS(Cart)=  0.01540334 RMS(Int)=  0.00046842
 Iteration  2 RMS(Cart)=  0.00032789 RMS(Int)=  0.00042105
 Iteration  3 RMS(Cart)=  0.00000004 RMS(Int)=  0.00042105
 Variable       Old X    -DE/DX   Delta X   Delta X   Delta X     New X
                                 (Linear)    (Quad)   (Total)
    R1        2.05581  -0.00023  -0.00017   0.00005  -0.00013   2.05568
    R2        2.04807   0.00012  -0.00012   0.00054   0.00042   2.04850
    R3        2.54134  -0.00423  -0.00116  -0.00512  -0.00629   2.53505
    R4        2.83612  -0.00124  -0.00045  -0.00112  -0.00157   2.83455
    R5        2.59816   0.00082  -0.00230   0.00776   0.00546   2.60362
    R6        2.07371  -0.00043   0.00008  -0.00106  -0.00098   2.07273
    R7        2.06360   0.00031  -0.00013   0.00095   0.00082   2.06441
    R8        2.07353  -0.00001   0.00004  -0.00012  -0.00008   2.07345
    R9        1.83685   0.00061  -0.00002   0.00078   0.00077   1.83761
    A1        2.05089   0.00048   0.00117  -0.00516  -0.00264   2.04825
    A2        2.13003   0.00017  -0.00258   0.00437   0.00314   2.13317
    A3        2.10225  -0.00064  -0.00241   0.00053  -0.00054   2.10171
    A4        2.18695   0.00054  -0.00119   0.00552   0.00391   2.19086
    A5        2.16513  -0.00187  -0.00033  -0.00315  -0.00390   2.16124
    A6        1.93033   0.00137   0.00165  -0.00059   0.00064   1.93097
    A7        1.93451  -0.00133  -0.00046  -0.00463  -0.00509   1.92942
    A8        1.93323   0.00039  -0.00004   0.00182   0.00179   1.93502
    A9        1.92901   0.00015   0.00013   0.00067   0.00081   1.92982
   A10        1.89786   0.00041   0.00026   0.00065   0.00090   1.89876
   A11        1.87032   0.00052  -0.00011   0.00213   0.00203   1.87234
   A12        1.89729  -0.00012   0.00023  -0.00058  -0.00036   1.89694
   A13        1.91983   0.00018   0.00069  -0.00123  -0.00055   1.91929
    D1        3.12557   0.00061   0.02154  -0.01228   0.00923   3.13480
    D2        0.02998  -0.00076   0.01132  -0.06591  -0.05458  -0.02460
    D3       -0.00904   0.00005  -0.01994   0.03439   0.01444   0.00540
    D4       -3.10463  -0.00132  -0.03016  -0.01924  -0.04938   3.12918
    D5       -2.10225  -0.00048  -0.00522  -0.01489  -0.02015  -2.12240
    D6        0.00602  -0.00059  -0.00523  -0.01595  -0.02123  -0.01520
    D7        2.10993  -0.00039  -0.00488  -0.01503  -0.01996   2.08997
    D8        0.99863   0.00066   0.00383   0.03249   0.03637   1.03500
    D9        3.10690   0.00055   0.00382   0.03143   0.03530  -3.14098
   D10       -1.07238   0.00076   0.00417   0.03235   0.03656  -1.03582
   D11        0.00031   0.00030   0.00687   0.00902   0.01578   0.01609
   D12       -3.10118  -0.00089  -0.00205  -0.03788  -0.03981  -3.14099
         Item               Value     Threshold  Converged?
 Maximum Force            0.004227     0.000450     NO 
 RMS     Force            0.001017     0.000300     NO 
 Maximum Displacement     0.039536     0.001800     NO 
 RMS     Displacement     0.015420     0.001200     NO 
 Predicted change in Energy=-1.546411D-04
 GradGradGradGradGradGradGradGradGradGradGradGradGradGradGradGradGradGrad

                          Input orientation:                          
 ---------------------------------------------------------------------
 Center     Atomic      Atomic             Coordinates (Angstroms)
 Number     Number       Type             X           Y           Z
 ---------------------------------------------------------------------
      1          6           0        0.121107   -0.432106    1.127922
      2          1           0        0.468117   -1.453206    1.270352
      3          1           0        0.524947    0.327763    1.787168
      4          6           0       -0.780367   -0.107417    0.189026
      5          6           0       -1.315500    1.270447   -0.066046
      6          1           0       -2.406938    1.285578    0.041627
      7          1           0       -0.883032    1.991219    0.631726
      8          1           0       -1.084585    1.590274   -1.089902
      9          8           0       -1.328168   -1.012228   -0.693863
     10          1           0       -0.975329   -1.901476   -0.519652
 ---------------------------------------------------------------------
                    Distance matrix (angstroms):
                    1          2          3          4          5
     1  C    0.000000
     2  H    1.087818   0.000000
     3  H    1.084018   1.855312   0.000000
     4  C    1.341493   2.130522   2.108859   0.000000
     5  C    2.527466   3.519309   2.776742   1.499980   0.000000
     6  H    3.243684   4.156518   3.544047   2.146601   1.096840
     7  H    2.669646   3.754665   2.466685   2.147277   1.092440
     8  H    3.234573   4.152645   3.530165   2.147176   1.097221
     9  O    2.399133   2.698007   3.374185   1.377774   2.367471
    10  H    2.464897   2.342774   3.541433   1.938783   3.222199
                    6          7          8          9         10
     6  H    0.000000
     7  H    1.780009   0.000000
     8  H    1.766866   1.779153   0.000000
     9  O    2.642840   3.313008   2.643709   0.000000
    10  H    3.538622   4.060450   3.539695   0.972423   0.000000
 Stoichiometry    C3H6O
 Framework group  C1[X(C3H6O)]
 Deg. of freedom    24
 Full point group                 C1      NOp   1
 Largest Abelian subgroup         C1      NOp   1
 Largest concise Abelian subgroup C1      NOp   1
                         Standard orientation:                         
 ---------------------------------------------------------------------
 Center     Atomic      Atomic             Coordinates (Angstroms)
 Number     Number       Type             X           Y           Z
 ---------------------------------------------------------------------
      1          6           0       -0.985169   -1.044457   -0.002039
      2          1           0       -2.056256   -0.854686    0.008340
      3          1           0       -0.662676   -2.079380   -0.007262
      4          6           0       -0.082788   -0.051854    0.005115
      5          6           0        1.406801   -0.228027    0.000178
      6          1           0        1.854280    0.253176    0.878396
      7          1           0        1.673387   -1.287429    0.005328
      8          1           0        1.847541    0.241060   -0.888416
      9          8           0       -0.413599    1.285596   -0.002193
     10          1           0       -1.380552    1.388519    0.001637
 ---------------------------------------------------------------------
 Rotational constants (GHZ):          10.0087750           9.0063710           4.8847877
 Standard basis: 6-31+G(d) (6D, 7F)
 There are    88 symmetry adapted cartesian basis functions of A   symmetry.
 There are    88 symmetry adapted basis functions of A   symmetry.
    88 basis functions,   152 primitive gaussians,    88 cartesian basis functions
    16 alpha electrons       16 beta electrons
       nuclear repulsion energy       119.8240804997 Hartrees.
 NAtoms=   10 NActive=   10 NUniq=   10 SFac= 1.00D+00 NAtFMM=   60 NAOKFM=F Big=F
 Integral buffers will be    131072 words long.
 Raffenetti 2 integral format.
 Two-electron integral symmetry is turned on.
 Nuclear repulsion after empirical dispersion term =      119.8141289853 Hartrees.
 ------------------------------------------------------------------------------
 Polarizable Continuum Model (PCM)
 =================================
 Model                : PCM.
 Atomic radii         : UFF (Universal Force Field).
 Polarization charges : Total charges.
 Charge compensation  : None.
 Solution method      : On-the-fly selection.
 Cavity type          : Scaled VdW (van der Waals Surface) (Alpha=1.100).
 Cavity algorithm     : GePol (No added spheres)
                        Default sphere list used, NSphG=   10.
                        Lebedev-Laikov grids with approx.  5.0 points / Ang**2.
                        Smoothing algorithm: York/Karplus (Gamma=1.0000).
                        Polarization charges: spherical gaussians, with
                                              point-specific exponents (IZeta= 3).
                        Self-potential: point-specific (ISelfS= 7).
                        Self-field    : sphere-specific E.n sum rule (ISelfD= 2).
 1st derivatives      : Analytical E(r).r(x)/FMM algorithm (CHGder, D1EAlg=3).
                        Cavity 1st derivative terms included.
 Solvent              : Water, Eps=  78.355300 Eps(inf)=   1.777849
 ------------------------------------------------------------------------------
 Spheres list:
 ISph  on   Nord     Re0    Alpha      Xe            Ye            Ze
    1   C      1    1.9255  1.100     -0.985169     -1.044457     -0.002039
    2   H      2    1.4430  1.100     -2.056256     -0.854686      0.008340
    3   H      3    1.4430  1.100     -0.662676     -2.079380     -0.007262
    4   C      4    1.9255  1.100     -0.082788     -0.051854      0.005115
    5   C      5    1.9255  1.100      1.406801     -0.228027      0.000178
    6   H      6    1.4430  1.100      1.854280      0.253176      0.878396
    7   H      7    1.4430  1.100      1.673387     -1.287429      0.005328
    8   H      8    1.4430  1.100      1.847541      0.241060     -0.888416
    9   O      9    1.7500  1.100     -0.413599      1.285596     -0.002193
   10   H     10    1.4430  1.100     -1.380552      1.388519      0.001637
 ------------------------------------------------------------------------------
 One-electron integrals computed using PRISM.
 PrsmSu:  requested number of processors reduced to:  30 ShMem   1 Linda.
 NBasis=    88 RedAO= T EigKep=  6.42D-05  NBF=    88
 NBsUse=    88 1.00D-06 EigRej= -1.00D+00 NBFU=    88
 Initial guess from the checkpoint file:  "xichun.chk"
 B after Tr=    -0.000000    0.000000    0.000000
         Rot=    0.999992   -0.000658   -0.000451   -0.003912 Ang=  -0.46 deg.
 ExpMin= 4.38D-02 ExpMax= 5.48D+03 ExpMxC= 8.25D+02 IAcc=3 IRadAn=         5 AccDes= 0.00D+00
 Harris functional with IExCor=  402 and IRadAn=       5 diagonalized for initial guess.
 HarFok:  IExCor=  402 AccDes= 0.00D+00 IRadAn=         5 IDoV= 1 UseB2=F ITyADJ=14
 ICtDFT=  3500011 ScaDFX=  1.000000  1.000000  1.000000  1.000000
 FoFCou: FMM=F IPFlag=           0 FMFlag=      100000 FMFlg1=           0
         NFxFlg=           0 DoJE=T BraDBF=F KetDBF=T FulRan=T
         wScrn=  0.000000 ICntrl=       500 IOpCl=  0 I1Cent=   200000004 NGrid=           0
         NMat0=    1 NMatS0=      1 NMatT0=    0 NMatD0=    1 NMtDS0=    0 NMtDT0=    0
 Petite list used in FoFCou.
 Keep R1 ints in memory in canonical form, NReq=36921278.
 Requested convergence on RMS density matrix=1.00D-08 within 128 cycles.
 Requested convergence on MAX density matrix=1.00D-06.
 Requested convergence on             energy=1.00D-06.
 No special actions if energy rises.
 Inv3:  Mode=1 IEnd=     2430000.
 Iteration    1 A*A^-1 deviation from unit magnitude is 3.33D-15 for    871.
 Iteration    1 A*A^-1 deviation from orthogonality  is 1.79D-15 for    836    127.
 Iteration    1 A^-1*A deviation from unit magnitude is 3.11D-15 for    857.
 Iteration    1 A^-1*A deviation from orthogonality  is 1.41D-15 for    655    331.
 Error on total polarization charges =  0.01333
 SCF Done:  E(RB3LYP) =  -193.155964605     A.U. after   10 cycles
            NFock= 10  Conv=0.28D-08     -V/T= 2.0100
 PrsmSu:  requested number of processors reduced to:  30 ShMem   1 Linda.
 D1PCM: PCM CHGder 1st derivatives, ID1Alg=3 FixD1E=F DoIter=F DoCFld=F I1PDM=0.
 CoulSu:  requested number of processors reduced to:  30 ShMem   1 Linda.
 CoulSu:  requested number of processors reduced to:  30 ShMem   1 Linda.
 Calling FoFJK, ICntrl=      2127 FMM=F ISym2X=0 I1Cent= 0 IOpClX= 0 NMat=1 NMatS=1 NMatT=0.
 ***** Axes restored to original set *****
 -------------------------------------------------------------------
 Center     Atomic                   Forces (Hartrees/Bohr)
 Number     Number              X              Y              Z
 -------------------------------------------------------------------
      1        6          -0.000718119   -0.001049827    0.000411584
      2        1           0.000088009    0.000157971   -0.000623524
      3        1          -0.000466470    0.000382975   -0.000022202
[...]
   D11        0.00064  -0.00001   0.00000  -0.00067  -0.00067  -0.00003
   D12       -3.14123  -0.00001   0.00000  -0.00039  -0.00039   3.14157
         Item               Value     Threshold  Converged?
 Maximum Force            0.000036     0.000450     YES
 RMS     Force            0.000009     0.000300     YES
 Maximum Displacement     0.003009     0.001800     NO 
 RMS     Displacement     0.001045     0.001200     YES
 Predicted change in Energy=-3.910103D-08
                           ----------------------------
                           ! Non-Optimized Parameters !
                           ! (Angstroms and Degrees)  !
 --------------------------                            --------------------------
 ! Name  Definition              Value          Derivative Info.                !
 --------------------------------------------------------------------------------
 ! R1    R(1,2)                  1.0874         -DE/DX =    0.0                 !
 ! R2    R(1,3)                  1.0841         -DE/DX =    0.0                 !
 ! R3    R(1,4)                  1.3412         -DE/DX =    0.0                 !
 ! R4    R(4,5)                  1.4983         -DE/DX =    0.0                 !
 ! R5    R(4,9)                  1.3771         -DE/DX =    0.0                 !
 ! R6    R(5,6)                  1.097          -DE/DX =    0.0                 !
 ! R7    R(5,7)                  1.0924         -DE/DX =    0.0                 !
 ! R8    R(5,8)                  1.097          -DE/DX =    0.0                 !
 ! R9    R(9,10)                 0.9725         -DE/DX =    0.0                 !
 ! A1    A(2,1,3)              117.666          -DE/DX =    0.0                 !
 ! A2    A(2,1,4)              122.1182         -DE/DX =    0.0                 !
 ! A3    A(3,1,4)              120.2158         -DE/DX =    0.0                 !
 ! A4    A(1,4,5)              125.6033         -DE/DX =    0.0                 !
 ! A5    A(1,4,9)              123.5822         -DE/DX =    0.0                 !
 ! A6    A(5,4,9)              110.8145         -DE/DX =    0.0                 !
 ! A7    A(4,5,6)              110.4759         -DE/DX =    0.0                 !
 ! A8    A(4,5,7)              110.8925         -DE/DX =    0.0                 !
 ! A9    A(4,5,8)              110.4761         -DE/DX =    0.0                 !
 ! A10   A(6,5,7)              108.7827         -DE/DX =    0.0                 !
 ! A11   A(6,5,8)              107.3355         -DE/DX =    0.0                 !
 ! A12   A(7,5,8)              108.7829         -DE/DX =    0.0                 !
 ! A13   A(4,9,10)             109.9311         -DE/DX =    0.0                 !
 ! D1    D(2,1,4,5)            179.9993         -DE/DX =    0.0                 !
 ! D2    D(2,1,4,9)             -0.0003         -DE/DX =    0.0                 !
 ! D3    D(3,1,4,5)             -0.0009         -DE/DX =    0.0                 !
 ! D4    D(3,1,4,9)            179.9995         -DE/DX =    0.0                 !
 ! D5    D(1,4,5,6)           -120.6898         -DE/DX =    0.0                 !
 ! D6    D(1,4,5,7)              0.0018         -DE/DX =    0.0                 !
 ! D7    D(1,4,5,8)            120.6936         -DE/DX =    0.0                 !
 ! D8    D(9,4,5,6)             59.3098         -DE/DX =    0.0                 !
 ! D9    D(9,4,5,7)           -179.9986         -DE/DX =    0.0                 !
 ! D10   D(9,4,5,8)            -59.3068         -DE/DX =    0.0                 !
 ! D11   D(1,4,9,10)            -0.0017         -DE/DX =    0.0                 !
 ! D12   D(5,4,9,10)           179.9987         -DE/DX =    0.0                 !
 --------------------------------------------------------------------------------
 GradGradGradGradGradGradGradGradGradGradGradGradGradGradGradGradGradGrad


 ----------------------------------------------------------------------

 Electric dipole moment (input orientation):
 (Debye = 10**-18 statcoulomb cm , SI units = C m)
                  (au)            (Debye)         (10**-30 SI)
   Tot        0.331170D+00      0.841750D+00      0.280777D+01
   x          0.213407D+00      0.542427D+00      0.180934D+01
   y         -0.144976D+00     -0.368493D+00     -0.122916D+01
   z          0.207636D+00      0.527758D+00      0.176041D+01

 Dipole polarizability, Alpha (input orientation).
 (esu units = cm**3 , SI units = C**2 m**2 J**-1)
 Alpha(0;0):
               (au)            (10**-24 esu)      (10**-40 SI)
   iso        0.525845D+02      0.779221D+01      0.867001D+01
   aniso      0.262411D+02      0.388853D+01      0.432658D+01
   xx         0.533354D+02      0.790349D+01      0.879382D+01
   yx        -0.445627D+01     -0.660351D+00     -0.734739D+00
   yy         0.489444D+02      0.725281D+01      0.806984D+01
   zx         0.138014D+02      0.204516D+01      0.227555D+01
   zy        -0.284851D+01     -0.422106D+00     -0.469656D+00
   zz         0.554736D+02      0.822034D+01      0.914636D+01

 ----------------------------------------------------------------------

 Dipole orientation:
     6         -1.35145987          0.25023481          1.83925579
     1         -1.35339259         -1.22547210          3.26926338
     1         -1.34715730          2.19604577          2.48034038
     6         -1.35435266         -0.27590266         -0.63998478
     6         -1.35118930          1.63361083         -2.73044776
     1         -3.02033059          1.39221801         -3.93576993
     1         -1.35014635          3.55398879         -1.97320679
     1          0.31958478          1.38961407         -3.93305802
     8         -1.36005431         -2.69558544         -1.59801426
     1         -1.36268273         -3.91401364         -0.22223607

 Electric dipole moment (dipole orientation):
 (Debye = 10**-18 statcoulomb cm , SI units = C m)
                  (au)            (Debye)         (10**-30 SI)
   Tot        0.331170D+00      0.841750D+00      0.280777D+01
   x          0.000000D+00      0.000000D+00      0.000000D+00
   y          0.000000D+00      0.000000D+00      0.000000D+00
   z          0.331170D+00      0.841750D+00      0.280777D+01

 Dipole polarizability, Alpha (dipole orientation).
 (esu units = cm**3 , SI units = C**2 m**2 J**-1)
 Alpha(0;0):
               (au)            (10**-24 esu)      (10**-40 SI)
   iso        0.525845D+02      0.779221D+01      0.867001D+01
   aniso      0.262411D+02      0.388853D+01      0.432658D+01
   xx         0.403294D+02      0.597621D+01      0.664943D+01
   yx         0.240933D-01      0.357027D-02      0.397246D-02
   yy         0.488594D+02      0.724021D+01      0.805582D+01
   zx         0.246667D-01      0.365523D-02      0.406699D-02
   zy         0.445165D+01      0.659666D+00      0.733978D+00
   zz         0.685646D+02      0.101602D+02      0.113048D+02

 ----------------------------------------------------------------------
 Unable to Open any file for archive entry.
 1\1\GINC-DUCKTER-ASUS\Freq\RB3LYP\6-31+G(d)\C3H6O1\DUCKTER\27-Jun-2024
 \0\\#N Geom=AllCheck Guess=TCheck SCRF=Check GenChk RB3LYP/6-31+G(d) F
 req\\DFGFSDGFSDGSFD\\0,1\C,0.1175236822,-0.4332596177,1.1290540809\H,0
 .4689982574,-1.4536363151,1.262304322\H,0.5163674415,0.3270146304,1.79
 10504083\C,-0.7773222146,-0.1048131341,0.1855889153\C,-1.3137261845,1.
 271196824,-0.0667133556\H,-2.4047269365,1.2845764255,0.046645399\H,-0.
 8788908902,1.9923901431,0.629041356\H,-1.0877326062,1.5891827767,-1.09
 19821578\O,-1.3282763916,-1.0130175174,-0.6908632611\H,-0.9719621176,-
 1.9007860953,-0.5157673868\\Version=ES64L-G16RevC.01\State=1-A\HF=-193
 .1559937\RMSD=3.447e-09\RMSF=1.439e-05\ZeroPoint=0.0844868\Thermal=0.0
 893334\ETot=-193.0666603\HTot=-193.0657161\GTot=-193.098317\Dipole=0.2
 134071,-0.1449764,0.2076359\DipoleDeriv=-0.6768524,-0.0528149,-0.09992
 55,0.0775914,-0.1245626,0.2167577,-0.0651014,0.0664695,-0.6598776,0.15
 5073,0.0588086,-0.0966779,0.0854948,-0.1252209,-0.0020762,-0.0896292,-
 0.0328067,0.1406237,0.142919,-0.0035671,-0.1029641,-0.0338236,-0.02186
 18,-0.1064482,-0.1110399,-0.0716001,0.0844979,0.6729772,-0.0024186,0.8
 210413,0.2476524,0.918298,0.54006,0.888056,0.2516284,1.0501248,0.10323
 52,0.1075261,-0.0649527,0.0174701,-0.0751547,-0.0488426,-0.0894439,0.0
 556354,0.0960576,-0.1617498,0.0453436,-0.0167678,0.0108802,0.031771,0.
 050825,0.0258497,0.0083906,0.1057138,0.0521164,-0.0697979,-0.0802994,-
 0.0138194,-0.0236346,-0.0504642,-0.0652697,-0.11527,-0.0008227,0.08342
 77,0.0052418,0.0523267,0.0612589,0.02088,0.072495,0.0155312,0.0899383,
 -0.1287554,-0.6975543,-0.1863887,-0.3322457,-0.5391608,-0.867735,-0.73
 18373,-0.4264438,-0.3253687,-1.0297857,0.326408,0.0980672,-0.0795349,0
 .0864558,0.2672207,0.0595307,-0.0825089,0.0729833,0.3422235\Polar=53.3
 354126,-4.4562661,48.9444142,13.8014292,-2.8485127,55.4735819\Quadrupo
 le=-1.8643496,3.9391618,-2.0748121,-1.1631812,-0.0399235,0.2636731\PG=
 C01 [X(C3H6O1)]\NImag=0\\0.41497311,-0.09834253,0.65383674,0.35893491,
 0.03929578,0.50472222,-0.06876206,0.08682453,-0.02597349,0.06593169,0.
 09003176,-0.30556391,0.02932829,-0.09784009,0.32171336,-0.02512014,0.0
 2563435,-0.04826289,0.02887315,-0.03192487,0.04301431,-0.07543719,-0.0
 6912692,-0.07975488,0.00494314,0.00675644,0.00728803,0.07638480,-0.073
 91082,-0.20186062,-0.13300436,-0.01039161,-0.01366255,-0.01565668,0.07
 713669,0.20714472,-0.08103679,-0.12749379,-0.14951019,0.00272268,0.004
 10002,0.00440683,0.08692132,0.13903904,0.15594358,-0.25670124,0.085977
 38,-0.21285752,-0.00341767,-0.00035176,-0.00827793,-0.00634576,0.00348
 318,-0.00387279,0.47186727,0.08382564,-0.14240029,0.07252144,0.0213592
 4,-0.00657700,0.02188025,-0.01662981,0.00674451,-0.01679024,-0.1175906
 6,0.57182353,-0.21343999,0.07500936,-0.27800215,-0.00249945,-0.0031356
 4,-0.00003091,-0.00923712,0.00638651,-0.01110251,0.31223331,-0.0296436
 6,0.52556451,-0.00255255,0.02133470,-0.00722324,0.00466402,0.00184008,
 -0.00715808,-0.00327750,-0.00037218,0.00347190,-0.10124580,0.05228873,
 -0.01274859,0.54981008,0.00745626,-0.00566106,0.00479745,0.00046065,0.
 00191444,-0.00197403,-0.00151898,-0.00041103,-0.00015647,0.04833078,-0
 .19792704,0.02384827,0.03112776,0.52799004,-0.01090173,0.02077887,0.00
 158732,-0.00751354,-0.00038225,0.00252441,0.00315823,0.00115673,-0.002
 41659,-0.01379722,0.02838811,-0.08647143,0.01607961,0.03196636,0.57000
 483,0.00035557,0.00187168,0.00093401,0.00035017,0.00040076,-0.00070271
 ,-0.00021199,-0.00010993,0.00043350,-0.01229391,0.00193523,-0.00170326
 ,-0.30577828,-0.00027340,0.02867397,0.33335056,-0.00001256,-0.00340194
 ,-0.00012041,-0.00091403,-0.00063924,0.00177287,0.00058768,0.00025087,
 -0.00037897,0.03459824,-0.00110190,-0.00351418,-0.00005088,-0.04835948
 ,-0.00218107,-0.00275783,0.05053379,-0.00014916,0.00098389,0.00035381,
 0.00055774,0.00046775,-0.00076097,-0.00045559,-0.00001877,0.00056226,-
 0.00907428,0.00112535,-0.00086470,0.02837793,-0.00206639,-0.04842819,-
 0.03027740,-0.00126770,0.04903030,-0.00040756,0.00011628,-0.00007321,0
 .00006849,-0.00018947,0.00027595,0.00003042,0.00057632,-0.00025582,0.0
 0389484,0.00725620,0.00969127,-0.09288652,-0.07351114,-0.07198590,-0.0
 1048742,-0.02101815,-0.02099065,0.09636606,-0.00028293,0.00105280,0.00
 004462,-0.00016274,0.00040093,-0.00002111,0.00062450,0.00001941,0.0006
 2053,-0.01539631,-0.01523045,-0.02111868,-0.06944870,-0.16657098,-0.11
 214574,0.00011532,0.00069039,0.00177955,0.07682560,0.18063682,-0.00017
 688,0.00049874,-0.00038777,0.00028146,-0.00005454,0.00009989,-0.000239
 39,0.00056730,0.00025459,0.00362478,0.00508520,0.00274868,-0.07090029,
 -0.11684838,-0.16086601,0.00157855,0.00411743,0.00288909,0.07903434,0.
 12491100,0.17060143,-0.00013668,0.00162019,0.00023091,-0.00129120,0.00
 009976,0.00064991,0.00064576,0.00020898,-0.00046370,0.00174118,0.00531
 320,-0.01529851,-0.05657629,-0.01673608,0.05259593,-0.00651946,-0.0093
 1947,0.03147213,0.00259516,0.00525870,-0.01245677,0.05949499,0.0006307
 9,-0.00326420,-0.00094790,0.00185264,0.00001992,-0.00065139,-0.0004500
 0,0.00003839,0.00048749,-0.00631585,-0.01054448,0.03154324,-0.01695723
 ,-0.06938923,0.06779927,-0.00051615,-0.00024755,-0.00023415,0.00608475
 ,0.00744582,-0.01994898,0.01494547,0.07336086,0.00054892,0.00125836,0.
 00072886,-0.00050168,0.00015345,0.00022314,0.00044054,0.00008396,-0.00
 008714,-0.00231081,0.00259564,-0.00545395,0.05289875,0.06764094,-0.276
 52067,0.00115329,0.00036470,-0.00287533,0.00468308,0.00587954,-0.01696
 179,-0.05705856,-0.07751427,0.29999471,-0.01117763,-0.02806129,-0.0345
 3101,-0.00226365,-0.00135194,0.00470565,0.00394759,0.00302408,-0.00833
 658,-0.10339613,-0.01806632,-0.06968789,0.00698512,0.00626008,0.006353
 53,0.00092029,-0.00071679,0.00058734,0.00003598,0.00294264,-0.00047176
 ,0.00028449,0.00021854,0.00037764,0.19481253,-0.01090199,0.00266109,-0
 .01512738,-0.00037049,0.00248219,0.00200442,0.00203393,0.00170357,-0.0
 0036374,-0.04452168,-0.17247285,-0.08463591,-0.01646214,-0.04062760,-0
 .03056922,-0.00083060,0.00192210,-0.00079507,0.00315869,-0.00740562,0.
 00138097,-0.00124729,0.00206394,-0.00060405,-0.10474538,0.60935944,-0.
 02996317,-0.03489036,-0.03149989,0.00496455,0.00087555,-0.00070534,-0.
 00859850,0.00077349,0.00217983,-0.07671165,-0.05412488,-0.14990924,0.0
 0031498,-0.00436367,0.00212970,0.00016984,0.00065454,0.00025489,-0.000
 41712,0.00111970,0.00094519,0.00037199,-0.00024154,0.00072884,0.158297
 60,0.03217852,0.22439855,-0.00015376,-0.00221403,0.00031352,-0.0002229
 3,0.00060446,-0.00053382,-0.00067927,0.00035529,0.00041630,0.00589722,
 -0.01969144,0.00269022,0.00085771,-0.00159594,-0.00266289,0.00031449,-
 0.00039621,-0.00004805,0.00079055,-0.00047608,-0.00027404,-0.00023794,
 0.00050703,-0.00023117,-0.09014859,0.17388695,-0.04842853,0.08358252,0
 .00150638,0.00460138,0.00321247,-0.00081811,-0.00008814,-0.00106380,0.
 00058647,0.00003274,0.00093613,0.01178668,-0.03231402,0.00526070,-0.00
 330013,-0.00095808,-0.00481105,0.00016490,0.00035296,0.00002553,0.0007
 0092,-0.00103913,0.00029126,-0.00014346,0.00051653,0.00014174,0.140496
 37,-0.39968627,0.05801866,-0.15098002,0.42858202,0.00130404,-0.0010751
 9,0.00027068,-0.00091143,0.00057223,-0.00050848,0.00047737,0.00067278,
 -0.00023066,0.01104411,-0.03103719,0.00352169,-0.00311296,-0.00284407,
 -0.00154337,-0.00025981,0.00055278,-0.00016116,0.00003807,-0.00106942,
 0.00067670,-0.00004334,-0.00029177,0.00022332,-0.05729453,0.09653147,-
 0.04852252,0.04875847,-0.06201164,0.04627380\\0.00001154,-0.00001090,-
 0.00000838,-0.00000372,0.00000057,-0.00000774,0.00000147,-0.00000765,0
 .00000347,0.00001663,0.00002643,0.00004436,-0.00000365,-0.00000985,0.0
 0000051,0.00000218,0.00000730,-0.00000356,0.00000139,-0.00001039,0.000
 00196,0.00000540,0.00001379,0.00000298,-0.00001673,-0.00002310,-0.0000
 3252,-0.00001450,0.00001380,-0.00000106\\\@
 The archive entry for this job was punched.


                                                                                    A
                                                                                  AA
                                                                                 AAA
                                                                                AAAA
                                                                               AAAAA
                                                                              AAAAAA   KKKKKKKK
                                                                             AAAAAAA   KKKKKKKK
                                                                            AAAAAAAA   KKKKKKKK
                                       ZZZZZZZZZZZZZZZZZZZZ                AAAA  AAA   KKKKKKKK
                                       ZZZZZZZZZZZZZZZZZZZ                AAAA   AAA   KKKKKKKK          K
                                       ZZZZZZZZZZZZZZZZZZ                AAAA    AAA   KKKKKKKK         KKK
                                       ZZZZZZZZZZZZZZZZZ                AAAA     AAA   KKKKKKKK        KKKKK
                                       ZZZZZZZZZZZZZZZZ                AAAA      AAA   KKKKKKKK       KKKKKKK
                                                ZZZZZZ                AAAA       AAA   KKKKKKKK      KKKKKKK
                                               ZZZZZZ                AAAA        AAA   KKKKKKKK     KKKKKKK
                                              ZZZZZZ                AAAA         AAA   KKKKKKKK    KKKKKKK
                                             ZZZZZZ                AAAA          AAA   KKKKKKKK   KKKKKKK
                                            ZZZZZZ                AAAAAAAAAAAAAAAAAA   KKKKKKKK  KKKKKKK
                                           ZZZZZZ                AAAAAAAAAAAAAAAAAAA   KKKKKKKK KKKKKKK
                                          ZZZZZZ                AAAAAAAAAAAAAAAAAAAA   KKKKKKKKKKKKKKK
                                         ZZZZZZ                AAAAAAAAAAAAAAAAAAAAA   KKKKKKKKKKKKKK
                                        ZZZZZZ                AAAAAA        AAAAAAAA   KKKKKKKKKKKKK
                                       ZZZZZZ                AAAAAA         AAAAAAAA   KKKKKKKKKKKK
                                      ZZZZZZ                AAAAAA          AAAAAAAA   KKKKKKKKKKK
                                     ZZZZZZ                AAAAAA           AAAAAAAA   KKKKKKKKKKKK
                                    ZZZZZZ                AAAAAA            AAAAAAAA   KKKKKKKKKKKKK
                                   ZZZZZZ                AAAAAA             AAAAAAAA   KKKKKKKKKKKKKK
                                  ZZZZZZ                AAAAAA              AAAAAAAA   KKKKKKKKKKKKKKK
                                 ZZZZZZ                AAAAAA               AAAAAAAA   KKKKK KKKKKKKKKK
                                ZZZZZZ                AAAAAA                AAAAAAAA   KKKKK  KKKKKKKKKK
                               ZZZZZZ                AAAAAA                            KKKKK   KKKKKKKKKK
                              ZZZZZZ                AAAAAA                             KKKKK    KKKKKKKKKK
                             ZZZZZZ                                                    KKKKK     KKKKKKKKKK
                            ZZZZZZ                                                     KKKKK      KKKKKKKKKK
                           ZZZZZZ                                                      KKKKK       KKKKKKKKKK
                          ZZZZZZ                                                       KKKKK        KKKKKKKKKK
                         ZZZZZZZZZZZZZZZZZZZZZZZZZZZZZZZZZZZZZZZZ                      KKKKK         KKKKKKKKKK
                        ZZZZZZZZZZZZZZZZZZZZZZZZZZZZZZZZZZZZZZZZZ                      KKKKK          KKKKKKKKKK
                       ZZZZZZZZZZZZZZZZZZZZZZZZZZZZZZZZZZZZZZZZZZ                      KKKKK           KKKKKKKKKK
                       ZZZZZZZZZZZZZZZZZZZZZZZZZZZZZZZZZZZZZZZZZZ                      KKKKK            KKKKKKKKKK
                       ZZZZZZZZZZZZZZZZZZZZZZZZZZZZZZZZZZZZZZZZZZ                      KKKKK             KKKKKKKKKK
                       ZZZZZZZZZZZZZZZZZZZZZZZZZZZZZZZZZZZZZZZZZZ                      KKKKK              KKKKKKKKKK
                       ZZZZZZZZZZZZZZZZZZZZZZZZZZZZZZZZZZZZZZZZZZ                      KKKKK               KKKKKKKKKK
                       ZZZZZZZZZZZZZZZZZZZZZZZZZZZZZZZZZZZZZZZZZZ                      KKKKK                KKKKKKKKKK
                       ZZZZZZZZZZZZZZZZZZZZZZZZZZZZZZZZZZZZZZZZZZ                      KKKKK
                                                                                       KKKKK
                                                                                          (J.P.)
 Job cpu time:       0 days  0 hours  6 minutes  3.8 seconds.
 Elapsed time:       0 days  0 hours  0 minutes 11.7 seconds.
 File lengths (MBytes):  RWF=     27 Int=      0 D2E=      0 Chk=      5 Scr=      1
 Normal termination of Gaussian 16 at Thu Jun 27 20:52:57 2024.
