 Entering Gaussian System, Link 0=g16
 Input=/home/duckter/Documents/KET_DFT_demo/intermediate.gjf
 Output=/home/duckter/Documents/KET_DFT_demo/intermediate.log
 Initial command:
 /home/duckter/g16/l1.exe "/home/duckter/g16/scratch/Gau-73443.inp" -scrdir="/home/duckter/g16/scratch/"
 Entering Link 1 = /home/duckter/g16/l1.exe PID=     73446.
  
 Copyright (c) 1988-2019, Gaussian, Inc.  All Rights Reserved.
  
 This is part of the Gaussian(R) 16 program.  It is based on
 the Gaussian(R) 09 system (copyright 2009, Gaussian, Inc.),
 the Gaussian(R) 03 system (copyright 2003, Gaussian, Inc.),
 the Gaussian(R) 98 system (copyright 1998, Gaussian, Inc.),
 the Gaussian(R) 94 system (copyright 1995, Gaussian, Inc.),
 the Gaussian 92(TM) system (copyright 1992, Gaussian, Inc.),
 the Gaussian 90(TM) system (copyright 1990, Gaussian, Inc.),
 the Gaussian 88(TM) system (copyright 1988, Gaussian, Inc.),
 the Gaussian 86(TM) system (copyright 1986, Carnegie Mellon
 University), and the Gaussian 82(TM) system (copyright 1983,
 Carnegie Mellon University). Gaussian is a federally registered
 trademark of Gaussian, Inc.
  
 This software contains proprietary and confidential information,
 including trade secrets, belonging to Gaussian, Inc.
  
 This software is provided under written license and may be
 used, copied, transmitted, or stored only in accord with that
 written license.
  
 The following legend is applicable only to US Government
 contracts under FAR:
  
                    RESTRICTED RIGHTS LEGEND
  
 Use, reproduction and disclosure by the US Government is
 subject to restrictions as set forth in subparagraphs (a)
 and (c) of the Commercial Computer Software - Restricted
 Rights clause in FAR 52.227-19.
  
 Gaussian, Inc.
 340 Quinnipiac St., Bldg. 40, Wallingford CT 06492
  
  
 ---------------------------------------------------------------
 Warning -- This program may not be used in any manner that
 competes with the business of Gaussian, Inc. or will provide
 assistance to any competitor of Gaussian, Inc.  The licensee
 of this program is prohibited from giving any competitor of
 Gaussian, Inc. access to this program.  By using this program,
 the user acknowledges that Gaussian, Inc. is engaged in the
 business of creating and licensing software in the field of
 computational chemistry and represents and warrants to the
 licensee that it is not a competitor of Gaussian, Inc. and that
 it will not use this program in any manner prohibited above.
 ---------------------------------------------------------------
  

 Cite this work as:
 Gaussian 16, Revision C.01,
 M. J. Frisch, G. W. Trucks, H. B. Schlegel, G. E. Scuseria, 
 M. A. Robb, J. R. Cheeseman, G. Scalmani, V. Barone, 
 G. A. Petersson, H. Nakatsuji, X. Li, M. Caricato, A. V. Marenich, 
 J. Bloino, B. G. Janesko, R. Gomperts, B. Mennucci, H. P. Hratchian, 
 J. V. Ortiz, A. F. Izmaylov, J. L. Sonnenberg, D. Williams-Young, 
 F. Ding, F. Lipparini, F. Egidi, J. Goings, B. Peng, A. Petrone, 
 T. Henderson, D. Ranasinghe, V. G. Zakrzewski, J. Gao, N. Rega, 
 G. Zheng, W. Liang, M. Hada, M. Ehara, K. Toyota, R. Fukuda, 
 J. Hasegawa, M. Ishida, T. Nakajima, Y. Honda, O. Kitao, H. Nakai, 
 T. Vreven, K. Throssell, J. A. Montgomery, Jr., J. E. Peralta, 
 F. Ogliaro, M. J. Bearpark, J. J. Heyd, E. N. Brothers, K. N. Kudin, 
 V. N. Staroverov, T. A. Keith, R. Kobayashi, J. Normand, 
 K. Raghavachari, A. P. Rendell, J. C. Burant, S. S. Iyengar, 
 J. Tomasi, M. Cossi, J. M. Millam, M. Klene, C. Adamo, R. Cammi, 
 J. W. Ochterski, R. L. Martin, K. Morokuma, O. Farkas, 
 J. B. Foresman, and D. J. Fox, Gaussian, Inc., Wallingford CT, 2019.
 
 ******************************************
 Gaussian 16:  ES64L-G16RevC.01  3-Jul-2019
                24-Jun-2024 
 ******************************************
 %nprocshared=32
 Will use up to   32 processors via shared memory.
 %chk=intermediate.chk
 ---------------------------------------------------------
 # b3lyp/6-31+g(d) opt freq scrf empiricaldispersion=gd3bj
 ---------------------------------------------------------
 1/18=20,19=15,26=3,38=1/1,3;
 2/9=110,12=2,17=6,18=5,40=1/2;
 3/5=1,6=6,7=11,11=2,25=1,30=1,70=2201,71=1,74=-5,124=41/1,2,3;
 4//1;
 5/5=2,38=5/2;
 6/7=2,8=2,9=2,10=2,28=1/1;
 7//1,2,3,16;
 1/18=20,19=15,26=3/3(2);
 2/9=110/2;
 99//99;
 2/9=110/2;
 3/5=1,6=6,7=11,11=2,25=1,30=1,70=2205,71=1,74=-5,124=41/1,2,3;
 4/5=5,16=3,69=1/1;
 5/5=2,38=5/2;
 7//1,2,3,16;
 1/18=20,19=15,26=3/3(-5);
 2/9=110/2;
 6/7=2,8=2,9=2,10=2,19=2,28=1/1;
 99/9=1/99;
 -----
 Title
 -----
 Symbolic Z-matrix:
 Charge =  1 Multiplicity = 1
 C                     1.66742   1.26403   0.0246 
 H                     2.13503   1.36183   1.01439 
 H                     1.01393   2.12089  -0.15932 
 H                     2.48211   1.23678  -0.70986 
 C                     0.89044  -0.02422  -0.01598 
 C                     1.6724   -1.30934   0.02987 
 H                     2.24158  -1.40896  -0.90495 
 H                     2.40556  -1.27595   0.84547 
 H                     1.00648  -2.16827   0.14768 
 O                    -0.44972  -0.02685  -0.0918 
 H                    -1.51289   0.94419  -0.24682 
 
 Add virtual bond connecting atoms H11        and O10        Dist= 2.74D+00.

 GradGradGradGradGradGradGradGradGradGradGradGradGradGradGradGradGradGrad
 Berny optimization.
 Initialization pass.
                           ----------------------------
                           !    Initial Parameters    !
                           ! (Angstroms and Degrees)  !
 --------------------------                            --------------------------
 ! Name  Definition              Value          Derivative Info.                !
 --------------------------------------------------------------------------------
 ! R1    R(1,2)                  1.099          estimate D2E/DX2                !
 ! R2    R(1,3)                  1.0932         estimate D2E/DX2                !
 ! R3    R(1,4)                  1.0972         estimate D2E/DX2                !
 ! R4    R(1,5)                  1.505          estimate D2E/DX2                !
 ! R5    R(5,6)                  1.505          estimate D2E/DX2                !
 ! R6    R(5,10)                 1.3423         estimate D2E/DX2                !
 ! R7    R(6,7)                  1.099          estimate D2E/DX2                !
 ! R8    R(6,8)                  1.0972         estimate D2E/DX2                !
 ! R9    R(6,9)                  1.0932         estimate D2E/DX2                !
 ! R10   R(10,11)                1.4482         estimate D2E/DX2                !
 ! A1    A(2,1,3)              109.6393         estimate D2E/DX2                !
 ! A2    A(2,1,4)              106.8062         estimate D2E/DX2                !
 ! A3    A(2,1,5)              108.67           estimate D2E/DX2                !
 ! A4    A(3,1,4)              110.5299         estimate D2E/DX2                !
 ! A5    A(3,1,5)              110.9642         estimate D2E/DX2                !
 ! A6    A(4,1,5)              110.123          estimate D2E/DX2                !
 ! A7    A(1,5,6)              117.5072         estimate D2E/DX2                !
 ! A8    A(1,5,10)             121.2421         estimate D2E/DX2                !
 ! A9    A(6,5,10)             121.2506         estimate D2E/DX2                !
 ! A10   A(5,6,7)              108.698          estimate D2E/DX2                !
 ! A11   A(5,6,8)              110.1109         estimate D2E/DX2                !
 ! A12   A(5,6,9)              110.9586         estimate D2E/DX2                !
 ! A13   A(7,6,8)              106.797          estimate D2E/DX2                !
 ! A14   A(7,6,9)              109.6291         estimate D2E/DX2                !
 ! A15   A(8,6,9)              110.5393         estimate D2E/DX2                !
 ! A16   A(5,10,11)            137.5351         estimate D2E/DX2                !
 ! D1    D(2,1,5,6)            -67.5891         estimate D2E/DX2                !
 ! D2    D(2,1,5,10)           112.487          estimate D2E/DX2                !
 ! D3    D(3,1,5,6)            171.7884         estimate D2E/DX2                !
 ! D4    D(3,1,5,10)            -8.1355         estimate D2E/DX2                !
 ! D5    D(4,1,5,6)             49.0804         estimate D2E/DX2                !
 ! D6    D(4,1,5,10)          -130.8435         estimate D2E/DX2                !
 ! D7    D(1,5,6,7)            -67.9851         estimate D2E/DX2                !
 ! D8    D(1,5,6,8)             48.6827         estimate D2E/DX2                !
 ! D9    D(1,5,6,9)            171.3905         estimate D2E/DX2                !
 ! D10   D(10,5,6,7)           111.9388         estimate D2E/DX2                !
 ! D11   D(10,5,6,8)          -131.3934         estimate D2E/DX2                !
 ! D12   D(10,5,6,9)            -8.6856         estimate D2E/DX2                !
 ! D13   D(1,5,10,11)            5.4091         estimate D2E/DX2                !
 ! D14   D(6,5,10,11)         -174.512          estimate D2E/DX2                !
 --------------------------------------------------------------------------------
 Trust Radius=3.00D-01 FncErr=1.00D-07 GrdErr=1.00D-06 EigMax=2.50D+02 EigMin=1.00D-04
 Number of steps in this run=     50 maximum allowed number of steps=    100.
 GradGradGradGradGradGradGradGradGradGradGradGradGradGradGradGradGradGrad

                          Input orientation:                          
 ---------------------------------------------------------------------
 Center     Atomic      Atomic             Coordinates (Angstroms)
 Number     Number       Type             X           Y           Z
 ---------------------------------------------------------------------
      1          6           0        1.667421    1.264026    0.024602
      2          1           0        2.135028    1.361830    1.014392
      3          1           0        1.013933    2.120892   -0.159320
      4          1           0        2.482115    1.236780   -0.709858
      5          6           0        0.890438   -0.024217   -0.015976
      6          6           0        1.672398   -1.309339    0.029870
      7          1           0        2.241582   -1.408957   -0.904952
      8          1           0        2.405564   -1.275945    0.845466
      9          1           0        1.006478   -2.168273    0.147677
     10          8           0       -0.449717   -0.026848   -0.091797
     11          1           0       -1.512887    0.944193   -0.246820
 ---------------------------------------------------------------------
                    Distance matrix (angstroms):
                    1          2          3          4          5
     1  C    0.000000
     2  H    1.099048   0.000000
     3  H    1.093203   1.791823   0.000000
     4  H    1.097224   1.763277   1.800085   0.000000
     5  C    1.504965   2.128800   2.153437   2.145931   0.000000
     6  C    2.573375   2.884173   3.497979   2.772284   1.505026
     7  H    2.887658   3.372313   3.810895   2.663802   2.129172
     8  H    2.769499   2.656988   3.805881   2.956126   2.145813
     9  H    3.497523   3.806107   4.300144   3.808839   2.153421
    10  O    2.482373   3.135759   2.599926   3.251829   1.342300
    11  H    3.207853   3.882314   2.788745   4.032375   2.601361
                    6          7          8          9         10
     6  C    0.000000
     7  H    1.098993   0.000000
     8  H    1.097198   1.763107   0.000000
     9  H    1.093204   1.791667   1.800167   0.000000
    10  O    2.482530   3.132816   3.254433   2.600683   0.000000
    11  H    3.911650   4.479563   4.634259   4.023714   1.448200
                   11
    11  H    0.000000
 Stoichiometry    C3H7O(1+)
 Framework group  C1[X(C3H7O)]
 Deg. of freedom    27
 Full point group                 C1      NOp   1
 Largest Abelian subgroup         C1      NOp   1
 Largest concise Abelian subgroup C1      NOp   1
                         Standard orientation:                         
 ---------------------------------------------------------------------
 Center     Atomic      Atomic             Coordinates (Angstroms)
 Number     Number       Type             X           Y           Z
 ---------------------------------------------------------------------
      1          6           0        0.567537    1.330196    0.002399
      2          1           0        0.322547    1.808958   -0.956075
      3          1           0        1.651622    1.323211    0.143124
      4          1           0        0.081501    1.923717    0.786874
      5          6           0        0.016335   -0.070182   -0.003785
      6          6           0       -1.480369   -0.228118    0.002189
      7          1           0       -1.867185    0.116934    0.971261
      8          1           0       -1.930504    0.413592   -0.765556
      9          1           0       -1.764055   -1.271978   -0.155842
     10          8           0        0.829243   -1.138297   -0.012713
     11          1           0        2.251117   -1.399434    0.073097
 ---------------------------------------------------------------------
 Rotational constants (GHZ):           8.7080649           8.0423753           4.4100760
 Standard basis: 6-31+G(d) (6D, 7F)
 There are    90 symmetry adapted cartesian basis functions of A   symmetry.
 There are    90 symmetry adapted basis functions of A   symmetry.
    90 basis functions,   156 primitive gaussians,    90 cartesian basis functions
    16 alpha electrons       16 beta electrons
       nuclear repulsion energy       123.1968932450 Hartrees.
 NAtoms=   11 NActive=   11 NUniq=   11 SFac= 1.00D+00 NAtFMM=   60 NAOKFM=F Big=F
 Integral buffers will be    131072 words long.
 Raffenetti 2 integral format.
 Two-electron integral symmetry is turned on.
 Nuclear repulsion after empirical dispersion term =      123.1857463983 Hartrees.
 ------------------------------------------------------------------------------
 Polarizable Continuum Model (PCM)
 =================================
 Model                : PCM.
 Atomic radii         : UFF (Universal Force Field).
 Polarization charges : Total charges.
 Charge compensation  : None.
 Solution method      : On-the-fly selection.
 Cavity type          : Scaled VdW (van der Waals Surface) (Alpha=1.100).
 Cavity algorithm     : GePol (No added spheres)
                        Default sphere list used, NSphG=   11.
                        Lebedev-Laikov grids with approx.  5.0 points / Ang**2.
                        Smoothing algorithm: York/Karplus (Gamma=1.0000).
                        Polarization charges: spherical gaussians, with
                                              point-specific exponents (IZeta= 3).
                        Self-potential: point-specific (ISelfS= 7).
                        Self-field    : sphere-specific E.n sum rule (ISelfD= 2).
 1st derivatives      : Analytical E(r).r(x)/FMM algorithm (CHGder, D1EAlg=3).
                        Cavity 1st derivative terms included.
 Solvent              : Water, Eps=  78.355300 Eps(inf)=   1.777849
 ------------------------------------------------------------------------------
 Spheres list:
 ISph  on   Nord     Re0    Alpha      Xe            Ye            Ze
    1   C      1    1.9255  1.100      0.567537      1.330196      0.002399
    2   H      2    1.4430  1.100      0.322547      1.808958     -0.956075
    3   H      3    1.4430  1.100      1.651622      1.323211      0.143124
    4   H      4    1.4430  1.100      0.081501      1.923717      0.786874
    5   C      5    1.9255  1.100      0.016335     -0.070182     -0.003785
    6   C      6    1.9255  1.100     -1.480369     -0.228118      0.002189
    7   H      7    1.4430  1.100     -1.867185      0.116934      0.971261
    8   H      8    1.4430  1.100     -1.930504      0.413592     -0.765556
    9   H      9    1.4430  1.100     -1.764055     -1.271978     -0.155842
   10   O     10    1.7500  1.100      0.829243     -1.138297     -0.012713
   11   H     11    1.4430  1.100      2.251117     -1.399434      0.073097
 ------------------------------------------------------------------------------
 One-electron integrals computed using PRISM.
 PrsmSu:  requested number of processors reduced to:  30 ShMem   1 Linda.
 NBasis=    90 RedAO= T EigKep=  1.57D-04  NBF=    90
 NBsUse=    90 1.00D-06 EigRej= -1.00D+00 NBFU=    90
 ExpMin= 4.38D-02 ExpMax= 5.48D+03 ExpMxC= 8.25D+02 IAcc=3 IRadAn=         5 AccDes= 0.00D+00
 Harris functional with IExCor=  402 and IRadAn=       5 diagonalized for initial guess.
 HarFok:  IExCor=  402 AccDes= 0.00D+00 IRadAn=         5 IDoV= 1 UseB2=F ITyADJ=14
 ICtDFT=  3500011 ScaDFX=  1.000000  1.000000  1.000000  1.000000
 FoFCou: FMM=F IPFlag=           0 FMFlag=      100000 FMFlg1=           0
         NFxFlg=           0 DoJE=T BraDBF=F KetDBF=T FulRan=T
         wScrn=  0.000000 ICntrl=       500 IOpCl=  0 I1Cent=   200000004 NGrid=           0
         NMat0=    1 NMatS0=      1 NMatT0=    0 NMatD0=    1 NMtDS0=    0 NMtDT0=    0
 Petite list used in FoFCou.
 Keep R1 ints in memory in canonical form, NReq=37643132.
 Requested convergence on RMS density matrix=1.00D-08 within 128 cycles.
 Requested convergence on MAX density matrix=1.00D-06.
 Requested convergence on             energy=1.00D-06.
 No special actions if energy rises.
 Inv3:  Mode=1 IEnd=     2851875.
 Iteration    1 A*A^-1 deviation from unit magnitude is 4.00D-15 for    961.
 Iteration    1 A*A^-1 deviation from orthogonality  is 2.93D-15 for    954    379.
 Iteration    1 A^-1*A deviation from unit magnitude is 3.55D-15 for    961.
 Iteration    1 A^-1*A deviation from orthogonality  is 2.11D-15 for    961    114.
 Error on total polarization charges =  0.00657
 SCF Done:  E(RB3LYP) =  -193.490453129     A.U. after   12 cycles
            NFock= 12  Conv=0.21D-08     -V/T= 2.0133

 **********************************************************************

            Population analysis using the SCF Density.

 **********************************************************************

 Orbital symmetries:
       Occupied  (A) (A) (A) (A) (A) (A) (A) (A) (A) (A) (A) (A)
                 (A) (A) (A) (A)
       Virtual   (A) (A) (A) (A) (A) (A) (A) (A) (A) (A) (A) (A)
                 (A) (A) (A) (A) (A) (A) (A) (A) (A) (A) (A) (A)
                 (A) (A) (A) (A) (A) (A) (A) (A) (A) (A) (A) (A)
                 (A) (A) (A) (A) (A) (A) (A) (A) (A) (A) (A) (A)
                 (A) (A) (A) (A) (A) (A) (A) (A) (A) (A) (A) (A)
                 (A) (A) (A) (A) (A) (A) (A) (A) (A) (A) (A) (A)
                 (A) (A)
 The electronic state is 1-A.
 Alpha  occ. eigenvalues --  -19.29410 -10.39475 -10.24133 -10.23488  -1.10964
 Alpha  occ. eigenvalues --   -0.83825  -0.75655  -0.63635  -0.54159  -0.51369
 Alpha  occ. eigenvalues --   -0.50679  -0.45475  -0.43808  -0.42270  -0.42231
 Alpha  occ. eigenvalues --   -0.38309
 Alpha virt. eigenvalues --   -0.15053  -0.12583   0.00623   0.03050   0.04926
 Alpha virt. eigenvalues --    0.04956   0.05626   0.06909   0.07897   0.08251
 Alpha virt. eigenvalues --    0.09684   0.09990   0.11988   0.14452   0.15584
 Alpha virt. eigenvalues --    0.18190   0.18656   0.19784   0.21584   0.22085
 Alpha virt. eigenvalues --    0.24198   0.25101   0.26712   0.30254   0.30845
 Alpha virt. eigenvalues --    0.33998   0.35768   0.56861   0.60564   0.61661
 Alpha virt. eigenvalues --    0.63181   0.64417   0.68336   0.71091   0.75879
 Alpha virt. eigenvalues --    0.79323   0.79782   0.89748   0.90063   0.97007
 Alpha virt. eigenvalues --    0.97424   0.99028   1.06567   1.09174   1.14531
 Alpha virt. eigenvalues --    1.15604   1.24189   1.33008   1.34389   1.34936
 Alpha virt. eigenvalues --    1.44995   1.50224   1.69596   1.71396   1.71456
 Alpha virt. eigenvalues --    1.76256   1.82891   1.86394   1.96285   2.03638
 Alpha virt. eigenvalues --    2.07959   2.16226   2.19478   2.30133   2.35006
 Alpha virt. eigenvalues --    2.38899   2.40469   2.57605   2.79766   2.85854
 Alpha virt. eigenvalues --    4.05254   4.10526   4.26146   4.42586
          Condensed to atoms (all electrons):
               1          2          3          4          5          6
     1  C    5.734831   0.349555   0.393309   0.361826   0.255655  -0.230176
     2  H    0.349555   0.414258  -0.017096  -0.020297  -0.012951  -0.007347
     3  H    0.393309  -0.017096   0.433544  -0.018909  -0.066184   0.013383
     4  H    0.361826  -0.020297  -0.018909   0.423427  -0.040079   0.009642
     5  C    0.255655  -0.012951  -0.066184  -0.040079   4.877923  -0.079293
     6  C   -0.230176  -0.007347   0.013383   0.009642  -0.079293   6.030063
     7  H   -0.015782   0.000300  -0.000049  -0.000050  -0.007008   0.354930
     8  H   -0.003433   0.000053   0.000091  -0.000224  -0.028597   0.366168
     9  H    0.014230  -0.000076  -0.000110   0.000058  -0.037998   0.363136
    10  O   -0.077602   0.000758  -0.002159   0.003252   0.457570  -0.105284
    11  H   -0.017051   0.000099   0.001588   0.000060  -0.005348   0.024797
               7          8          9         10         11
     1  C   -0.015782  -0.003433   0.014230  -0.077602  -0.017051
     2  H    0.000300   0.000053  -0.000076   0.000758   0.000099
     3  H   -0.000049   0.000091  -0.000110  -0.002159   0.001588
     4  H   -0.000050  -0.000224   0.000058   0.003252   0.000060
     5  C   -0.007008  -0.028597  -0.037998   0.457570  -0.005348
     6  C    0.354930   0.366168   0.363136  -0.105284   0.024797
     7  H    0.406926  -0.021464  -0.016510  -0.000498  -0.000041
     8  H   -0.021464   0.416233  -0.018503   0.002015  -0.000033
     9  H   -0.016510  -0.018503   0.427231  -0.000441  -0.000046
    10  O   -0.000498   0.002015  -0.000441   7.987198   0.150615
    11  H   -0.000041  -0.000033  -0.000046   0.150615   0.303459
 Mulliken charges:
               1
     1  C   -0.765364
     2  H    0.292744
     3  H    0.262591
     4  H    0.281293
     5  C    0.686310
     6  C   -0.740019
     7  H    0.299246
     8  H    0.287694
     9  H    0.269030
    10  O   -0.415425
    11  H    0.541901
 Sum of Mulliken charges =   1.00000
 Mulliken charges with hydrogens summed into heavy atoms:
               1
     1  C    0.071264
     5  C    0.686310
     6  C    0.115950
    10  O    0.126476
 Electronic spatial extent (au):  <R**2>=            306.7807
 Charge=              1.0000 electrons
 Dipole moment (field-independent basis, Debye):
    X=              2.6448    Y=              0.1372    Z=              0.2113  Tot=              2.6567
 Quadrupole moment (field-independent basis, Debye-Ang):
   XX=             -7.5347   YY=            -18.3918   ZZ=            -22.9153
   XY=             -5.3540   XZ=              0.3063   YZ=             -0.4111
 Traceless Quadrupole moment (field-independent basis, Debye-Ang):
   XX=              8.7459   YY=             -2.1112   ZZ=             -6.6347
   XY=             -5.3540   XZ=              0.3063   YZ=             -0.4111
 Octapole moment (field-independent basis, Debye-Ang**2):
  XXX=             27.3908  YYY=             -2.1933  ZZZ=              0.1402  XYY=             10.5722
  XXY=            -17.9548  XXZ=              1.5593  XZZ=             -0.9485  YZZ=              1.4032
  YYZ=             -0.0514  XYZ=             -0.7746
 Hexadecapole moment (field-independent basis, Debye-Ang**3):
 XXXX=           -100.9482 YYYY=           -153.5010 ZZZZ=            -33.5377 XXXY=            -46.0973
 XXXZ=              2.9614 YYYX=            -16.5310 YYYZ=             -0.3494 ZZZX=             -1.2819
 ZZZY=             -1.0589 XXYY=            -29.6113 XXZZ=            -34.2368 YYZZ=            -30.7731
 XXYZ=             -1.4361 YYXZ=              1.2887 ZZXY=             -3.1962
 N-N= 1.231857463983D+02 E-N=-6.886044029444D+02  KE= 1.909486429862D+02
 PrsmSu:  requested number of processors reduced to:  30 ShMem   1 Linda.
 D1PCM: PCM CHGder 1st derivatives, ID1Alg=3 FixD1E=F DoIter=F DoCFld=F I1PDM=0.
 CoulSu:  requested number of processors reduced to:  29 ShMem   1 Linda.
 CoulSu:  requested number of processors reduced to:  30 ShMem   1 Linda.
 Calling FoFJK, ICntrl=      2127 FMM=F ISym2X=0 I1Cent= 0 IOpClX= 0 NMat=1 NMatS=1 NMatT=0.
 ***** Axes restored to original set *****
 -------------------------------------------------------------------
 Center     Atomic                   Forces (Hartrees/Bohr)
 Number     Number              X              Y              Z
 -------------------------------------------------------------------
      1        6          -0.014150441   -0.005365762   -0.002627670
      2        1          -0.000849294   -0.001459581   -0.000073398
      3        1           0.001939147   -0.000496069    0.000546431
      4        1          -0.001033398   -0.001595446    0.000703496
      5        6          -0.048685854    0.039884850   -0.005050464
      6        6          -0.024262993   -0.001459700    0.001334094
      7        1          -0.002370519    0.002837247   -0.000540131
      8        1          -0.002589827    0.003541980   -0.000312723
      9        1           0.002077747   -0.000241478   -0.000531692
     10        8           0.004132139    0.013378442   -0.004699822
     11        1           0.085793294   -0.049024482    0.011251878
 -------------------------------------------------------------------
 Cartesian Forces:  Max     0.085793294 RMS     0.021300900

 GradGradGradGradGradGradGradGradGradGradGradGradGradGradGradGradGradGrad
 Berny optimization.
 FormGI is forming the generalized inverse of G from B-inverse, IUseBI=4.
 Internal  Forces:  Max     0.097074564 RMS     0.023917692
 Search for a local minimum.
 Step number   1 out of a maximum of   50
 All quantities printed in internal units (Hartrees-Bohrs-Radians)
 Mixed Optimization -- RFO/linear search
 Second derivative matrix not updated -- first step.
 ITU=  0
     Eigenvalues ---    0.00699   0.00700   0.00967   0.02455   0.07202
     Eigenvalues ---    0.07202   0.07601   0.07604   0.12786   0.16000
     Eigenvalues ---    0.16000   0.16000   0.16000   0.16000   0.16000
     Eigenvalues ---    0.16000   0.25000   0.25000   0.31856   0.31862
     Eigenvalues ---    0.33788   0.33794   0.33991   0.33994   0.34445
     Eigenvalues ---    0.34445   0.56693
 RFO step:  Lambda=-7.84359547D-02 EMin= 6.99469371D-03
 Linear search not attempted -- first point.
 Maximum step size (   0.300) exceeded in Quadratic search.
    -- Step size scaled by   0.531
 Iteration  1 RMS(Cart)=  0.07232698 RMS(Int)=  0.01039188
 Iteration  2 RMS(Cart)=  0.00946628 RMS(Int)=  0.00003751
 Iteration  3 RMS(Cart)=  0.00005362 RMS(Int)=  0.00002777
 Iteration  4 RMS(Cart)=  0.00000000 RMS(Int)=  0.00002777
 Variable       Old X    -DE/DX   Delta X   Delta X   Delta X     New X
                                 (Linear)    (Quad)   (Total)
    R1        2.07690  -0.00056   0.00000  -0.00071  -0.00071   2.07619
    R2        2.06585  -0.00163   0.00000  -0.00205  -0.00205   2.06381
    R3        2.07345  -0.00121   0.00000  -0.00154  -0.00154   2.07191
    R4        2.84397  -0.01496   0.00000  -0.02002  -0.02002   2.82396
    R5        2.84409  -0.01808   0.00000  -0.02420  -0.02420   2.81988
    R6        2.53658  -0.09007   0.00000  -0.07415  -0.07415   2.46243
    R7        2.07680  -0.00101   0.00000  -0.00129  -0.00129   2.07551
    R8        2.07340  -0.00185   0.00000  -0.00235  -0.00235   2.07105
    R9        2.06586  -0.00115   0.00000  -0.00144  -0.00144   2.06441
   R10        2.73670  -0.09707   0.00000  -0.24999  -0.24999   2.48671
    A1        1.91357   0.00021   0.00000   0.00076   0.00076   1.91433
    A2        1.86412   0.00129   0.00000   0.00180   0.00178   1.86590
    A3        1.89665  -0.00258   0.00000  -0.00612  -0.00613   1.89052
    A4        1.92911   0.00044   0.00000   0.00166   0.00166   1.93077
    A5        1.93669   0.00290   0.00000   0.00698   0.00699   1.94368
    A6        1.92201  -0.00238   0.00000  -0.00542  -0.00543   1.91658
    A7        2.05089   0.02090   0.00000   0.03380   0.03380   2.08469
    A8        2.11607   0.00550   0.00000   0.00889   0.00889   2.12496
    A9        2.11622  -0.02639   0.00000  -0.04269  -0.04269   2.07353
   A10        1.89714  -0.00515   0.00000  -0.01190  -0.01193   1.88521
   A11        1.92180  -0.00573   0.00000  -0.01294  -0.01296   1.90883
   A12        1.93659   0.00483   0.00000   0.01139   0.01142   1.94801
   A13        1.86396   0.00384   0.00000   0.00725   0.00715   1.87111
   A14        1.91339   0.00069   0.00000   0.00192   0.00195   1.91534
   A15        1.92927   0.00135   0.00000   0.00383   0.00385   1.93313
   A16        2.40044  -0.05907   0.00000  -0.13163  -0.13163   2.26881
    D1       -1.17965   0.00059   0.00000   0.00214   0.00214  -1.17751
    D2        1.96327   0.00035   0.00000   0.00061   0.00058   1.96385
    D3        2.99827   0.00020   0.00000   0.00083   0.00085   2.99912
    D4       -0.14199  -0.00004   0.00000  -0.00070  -0.00071  -0.14271
    D5        0.85661  -0.00069   0.00000  -0.00228  -0.00225   0.85436
    D6       -2.28365  -0.00093   0.00000  -0.00382  -0.00382  -2.28747
    D7       -1.18656   0.00053   0.00000   0.00137   0.00133  -1.18524
    D8        0.84967  -0.00105   0.00000  -0.00407  -0.00400   0.84567
    D9        2.99133   0.00000   0.00000  -0.00039  -0.00038   2.99095
   D10        1.95370   0.00080   0.00000   0.00295   0.00289   1.95659
   D11       -2.29325  -0.00078   0.00000  -0.00249  -0.00245  -2.29569
   D12       -0.15159   0.00027   0.00000   0.00119   0.00118  -0.15041
   D13        0.09441  -0.00134   0.00000  -0.00684  -0.00686   0.08755
   D14       -3.04581  -0.00163   0.00000  -0.00849  -0.00847  -3.05428
         Item               Value     Threshold  Converged?
 Maximum Force            0.097075     0.000450     NO 
 RMS     Force            0.023918     0.000300     NO 
 Maximum Displacement     0.436150     0.001800     NO 
 RMS     Displacement     0.077106     0.001200     NO 
 Predicted change in Energy=-3.413802D-02
 GradGradGradGradGradGradGradGradGradGradGradGradGradGradGradGradGradGrad

                          Input orientation:                          
 ---------------------------------------------------------------------
 Center     Atomic      Atomic             Coordinates (Angstroms)
 Number     Number       Type             X           Y           Z
 ---------------------------------------------------------------------
      1          6           0        1.634332    1.272559    0.021124
      2          1           0        2.098806    1.374216    1.011582
      3          1           0        0.970743    2.120249   -0.162723
      4          1           0        2.448833    1.253464   -0.712590
      5          6           0        0.887852   -0.021452   -0.017004
      6          6           0        1.644845   -1.306598    0.028574
      7          1           0        2.208768   -1.402070   -0.909064
      8          1           0        2.375913   -1.269068    0.844201
      9          1           0        0.976961   -2.163040    0.146317
     10          8           0       -0.412614   -0.061017   -0.089060
     11          1           0       -1.282087    0.916896   -0.228074
 ---------------------------------------------------------------------
                    Distance matrix (angstroms):
                    1          2          3          4          5
     1  C    0.000000
     2  H    1.098670   0.000000
     3  H    1.092121   1.791112   0.000000
     4  H    1.096409   1.763482   1.799561   0.000000
     5  C    1.494373   2.114778   2.148252   2.132114   0.000000
     6  C    2.579189   2.891219   3.497755   2.783817   1.492219
     7  H    2.889441   3.377682   3.807422   2.673592   2.108720
     8  H    2.772592   2.663034   3.804716   2.965144   2.124275
     9  H    3.500165   3.810433   4.294428   3.817935   2.149655
    10  O    2.445517   3.094921   2.583994   3.210067   1.303062
    11  H    2.948575   3.629920   2.554911   3.777273   2.373538
                    6          7          8          9         10
     6  C    0.000000
     7  H    1.098312   0.000000
     8  H    1.095954   1.766229   0.000000
     9  H    1.092441   1.791718   1.800916   0.000000
    10  O    2.407997   3.056547   3.179033   2.530775   0.000000
    11  H    3.684660   4.245871   4.394221   3.837899   1.315911
                   11
    11  H    0.000000
 Stoichiometry    C3H7O(1+)
 Framework group  C1[X(C3H7O)]
 Deg. of freedom    27
 Full point group                 C1      NOp   1
 Largest Abelian subgroup         C1      NOp   1
 Largest concise Abelian subgroup C1      NOp   1
                         Standard orientation:                         
 ---------------------------------------------------------------------
 Center     Atomic      Atomic             Coordinates (Angstroms)
 Number     Number       Type             X           Y           Z
 ---------------------------------------------------------------------
      1          6           0        0.965332    1.072528    0.002234
      2          1           0        0.880431    1.600179   -0.957690
      3          1           0        1.991797    0.726955    0.142506
      4          1           0        0.688422    1.788373    0.785177
      5          6           0        0.002172   -0.070032   -0.003049
      6          6           0       -1.464166    0.206643    0.001512
      7          1           0       -1.723229    0.649556    0.972596
      8          1           0       -1.695659    0.952701   -0.767205
      9          1           0       -2.046054   -0.704502   -0.155484
     10          8           0        0.407399   -1.308452   -0.011835
     11          1           0        1.625076   -1.800477    0.070594
 ---------------------------------------------------------------------
 Rotational constants (GHZ):           8.9971339           8.3205854           4.5685412
 Standard basis: 6-31+G(d) (6D, 7F)
 There are    90 symmetry adapted cartesian basis functions of A   symmetry.
 There are    90 symmetry adapted basis functions of A   symmetry.
    90 basis functions,   156 primitive gaussians,    90 cartesian basis functions
    16 alpha electrons       16 beta electrons
       nuclear repulsion energy       125.2320641523 Hartrees.
 NAtoms=   11 NActive=   11 NUniq=   11 SFac= 1.00D+00 NAtFMM=   60 NAOKFM=F Big=F
 Integral buffers will be    131072 words long.
 Raffenetti 2 integral format.
 Two-electron integral symmetry is turned on.
 Nuclear repulsion after empirical dispersion term =      125.2208862796 Hartrees.
 ------------------------------------------------------------------------------
 Polarizable Continuum Model (PCM)
 =================================
 Model                : PCM.
 Atomic radii         : UFF (Universal Force Field).
 Polarization charges : Total charges.
 Charge compensation  : None.
 Solution method      : On-the-fly selection.
 Cavity type          : Scaled VdW (van der Waals Surface) (Alpha=1.100).
 Cavity algorithm     : GePol (No added spheres)
                        Default sphere list used, NSphG=   11.
                        Lebedev-Laikov grids with approx.  5.0 points / Ang**2.
                        Smoothing algorithm: York/Karplus (Gamma=1.0000).
                        Polarization charges: spherical gaussians, with
                                              point-specific exponents (IZeta= 3).
                        Self-potential: point-specific (ISelfS= 7).
                        Self-field    : sphere-specific E.n sum rule (ISelfD= 2).
 1st derivatives      : Analytical E(r).r(x)/FMM algorithm (CHGder, D1EAlg=3).
                        Cavity 1st derivative terms included.
 Solvent              : Water, Eps=  78.355300 Eps(inf)=   1.777849
 ------------------------------------------------------------------------------
 Spheres list:
 ISph  on   Nord     Re0    Alpha      Xe            Ye            Ze
    1   C      1    1.9255  1.100      0.965332      1.072528      0.002234
    2   H      2    1.4430  1.100      0.880431      1.600179     -0.957690
    3   H      3    1.4430  1.100      1.991797      0.726955      0.142506
    4   H      4    1.4430  1.100      0.688422      1.788373      0.785177
    5   C      5    1.9255  1.100      0.002172     -0.070032     -0.003049
    6   C      6    1.9255  1.100     -1.464166      0.206643      0.001512
    7   H      7    1.4430  1.100     -1.723229      0.649556      0.972596
    8   H      8    1.4430  1.100     -1.695659      0.952701     -0.767205
    9   H      9    1.4430  1.100     -2.046054     -0.704502     -0.155484
   10   O     10    1.7500  1.100      0.407399     -1.308452     -0.011835
   11   H     11    1.4430  1.100      1.625076     -1.800477      0.070594
 ------------------------------------------------------------------------------
 One-electron integrals computed using PRISM.
 PrsmSu:  requested number of processors reduced to:  30 ShMem   1 Linda.
 NBasis=    90 RedAO= T EigKep=  1.43D-04  NBF=    90
 NBsUse=    90 1.00D-06 EigRej= -1.00D+00 NBFU=    90
 Initial guess from the checkpoint file:  "intermediate.chk"
 B after Tr=    -0.000000   -0.000000    0.000000
         Rot=    0.987875    0.000379    0.000048    0.155248 Ang=  17.86 deg.
 ExpMin= 4.38D-02 ExpMax= 5.48D+03 ExpMxC= 8.25D+02 IAcc=3 IRadAn=         5 AccDes= 0.00D+00
 Harris functional with IExCor=  402 and IRadAn=       5 diagonalized for initial guess.
 HarFok:  IExCor=  402 AccDes= 0.00D+00 IRadAn=         5 IDoV= 1 UseB2=F ITyADJ=14
 ICtDFT=  3500011 ScaDFX=  1.000000  1.000000  1.000000  1.000000
 FoFCou: FMM=F IPFlag=           0 FMFlag=      100000 FMFlg1=           0
         NFxFlg=           0 DoJE=T BraDBF=F KetDBF=T FulRan=T
         wScrn=  0.000000 ICntrl=       500 IOpCl=  0 I1Cent=   200000004 NGrid=           0
         NMat0=    1 NMatS0=      1 NMatT0=    0 NMatD0=    1 NMtDS0=    0 NMtDT0=    0
 Petite list used in FoFCou.
 Keep R1 ints in memory in canonical form, NReq=37643132.
 Requested convergence on RMS density matrix=1.00D-08 within 128 cycles.
 Requested convergence on MAX density matrix=1.00D-06.
 Requested convergence on             energy=1.00D-06.
 No special actions if energy rises.
 Inv3:  Mode=1 IEnd=     2770563.
 Iteration    1 A*A^-1 deviation from unit magnitude is 2.44D-15 for    807.
 Iteration    1 A*A^-1 deviation from orthogonality  is 2.09D-15 for    861    138.
 Iteration    1 A^-1*A deviation from unit magnitude is 2.66D-15 for    882.
 Iteration    1 A^-1*A deviation from orthogonality  is 2.09D-15 for    955    178.
 Error on total polarization charges =  0.00618
 SCF Done:  E(RB3LYP) =  -193.530002142     A.U. after   10 cycles
            NFock= 10  Conv=0.79D-08     -V/T= 2.0125
 PrsmSu:  requested number of processors reduced to:  30 ShMem   1 Linda.
 D1PCM: PCM CHGder 1st derivatives, ID1Alg=3 FixD1E=F DoIter=F DoCFld=F I1PDM=0.
 CoulSu:  requested number of processors reduced to:  29 ShMem   1 Linda.
 CoulSu:  requested number of processors reduced to:  30 ShMem   1 Linda.
 Calling FoFJK, ICntrl=      2127 FMM=F ISym2X=0 I1Cent= 0 IOpClX= 0 NMat=1 NMatS=1 NMatT=0.
 ***** Axes restored to original set *****
 -------------------------------------------------------------------
 Center     Atomic                   Forces (Hartrees/Bohr)
 Number     Number              X              Y              Z
 -------------------------------------------------------------------
      1        6          -0.008581018   -0.004364228   -0.002249042
      2        1          -0.000381809   -0.000840515   -0.000064360
      3        1           0.001486837    0.000071755    0.000344578
      4        1          -0.000429834   -0.000729943    0.000856419
      5        6          -0.026974036    0.028907511   -0.002998595
      6        6          -0.015009388   -0.000362930    0.001766771
      7        1          -0.000651886    0.001391054   -0.000361292
      8        1          -0.000685566    0.001404231   -0.000659025
      9        1           0.001079149    0.000513147   -0.000409596
     10        8          -0.030012326    0.035810960   -0.008258499
     11        1           0.080159877   -0.061801044    0.012032642
 -------------------------------------------------------------------
 Cartesian Forces:  Max     0.080159877 RMS     0.020998729

 GradGradGradGradGradGradGradGradGradGradGradGradGradGradGradGradGradGrad
 Berny optimization.
 Using GEDIIS/GDIIS optimizer.
 FormGI is forming the generalized inverse of G from B-inverse, IUseBI=4.
 Internal  Forces:  Max     0.100175912 RMS     0.019568209
 Search for a local minimum.
 Step number   2 out of a maximum of   50
 All quantities printed in internal units (Hartrees-Bohrs-Radians)
 Mixed Optimization -- RFO/linear search
 Update second derivatives using D2CorX and points    1    2
 DE= -3.95D-02 DEPred=-3.41D-02 R= 1.16D+00
 TightC=F SS=  1.41D+00  RLast= 3.00D-01 DXNew= 5.0454D-01 9.0089D-01
 Trust test= 1.16D+00 RLast= 3.00D-01 DXMaxT set to 5.05D-01
 ITU=  1  0
 Use linear search instead of GDIIS.
 Linear search step of   0.600 exceeds DXMaxT=   0.505 but not scaled.
 Quartic linear search produced a step of  2.00000.
 Iteration  1 RMS(Cart)=  0.10690873 RMS(Int)=  0.05249843
 Iteration  2 RMS(Cart)=  0.03502418 RMS(Int)=  0.02086312
 Iteration  3 RMS(Cart)=  0.01905104 RMS(Int)=  0.00016775
 Iteration  4 RMS(Cart)=  0.00003028 RMS(Int)=  0.00016701
 Iteration  5 RMS(Cart)=  0.00000000 RMS(Int)=  0.00016701
 Variable       Old X    -DE/DX   Delta X   Delta X   Delta X     New X
                                 (Linear)    (Quad)   (Total)
    R1        2.07619  -0.00032  -0.00143   0.00000  -0.00143   2.07476
    R2        2.06381  -0.00089  -0.00409   0.00000  -0.00409   2.05972
    R3        2.07191  -0.00087  -0.00308   0.00000  -0.00308   2.06883
    R4        2.82396  -0.00906  -0.04003   0.00000  -0.04003   2.78392
    R5        2.81988  -0.01026  -0.04840   0.00000  -0.04840   2.77148
    R6        2.46243  -0.04946  -0.14830   0.00000  -0.14830   2.31413
    R7        2.07551  -0.00016  -0.00257   0.00000  -0.00257   2.07294
    R8        2.07105  -0.00087  -0.00470   0.00000  -0.00470   2.06635
    R9        2.06441  -0.00111  -0.00289   0.00000  -0.00289   2.06153
   R10        2.48671  -0.10018  -0.49998   0.00000  -0.49998   1.98673
    A1        1.91433  -0.00012   0.00153   0.00000   0.00158   1.91591
    A2        1.86590   0.00038   0.00356   0.00000   0.00340   1.86929
    A3        1.89052  -0.00164  -0.01226   0.00000  -0.01231   1.87821
    A4        1.93077  -0.00008   0.00332   0.00000   0.00336   1.93413
    A5        1.94368   0.00239   0.01398   0.00000   0.01402   1.95770
    A6        1.91658  -0.00105  -0.01086   0.00000  -0.01091   1.90567
    A7        2.08469   0.01173   0.06761   0.00000   0.06761   2.15230
    A8        2.12496   0.00466   0.01778   0.00000   0.01778   2.14274
    A9        2.07353  -0.01638  -0.08539   0.00000  -0.08539   1.98814
   A10        1.88521  -0.00241  -0.02386   0.00000  -0.02404   1.86117
   A11        1.90883  -0.00192  -0.02593   0.00000  -0.02609   1.88274
   A12        1.94801   0.00179   0.02283   0.00000   0.02300   1.97101
   A13        1.87111   0.00117   0.01430   0.00000   0.01369   1.88480
   A14        1.91534   0.00051   0.00391   0.00000   0.00407   1.91941
   A15        1.93313   0.00075   0.00771   0.00000   0.00788   1.94101
   A16        2.26881  -0.04673  -0.26326   0.00000  -0.26326   2.00556
    D1       -1.17751   0.00040   0.00429   0.00000   0.00428  -1.17323
    D2        1.96385   0.00019   0.00116   0.00000   0.00099   1.96483
    D3        2.99912   0.00014   0.00170   0.00000   0.00179   3.00092
    D4       -0.14271  -0.00007  -0.00143   0.00000  -0.00150  -0.14421
    D5        0.85436  -0.00065  -0.00451   0.00000  -0.00434   0.85002
    D6       -2.28747  -0.00086  -0.00764   0.00000  -0.00764  -2.29510
    D7       -1.18524   0.00020   0.00266   0.00000   0.00237  -1.18286
    D8        0.84567  -0.00077  -0.00801   0.00000  -0.00763   0.83804
    D9        2.99095   0.00005  -0.00076   0.00000  -0.00071   2.99024
   D10        1.95659   0.00040   0.00577   0.00000   0.00539   1.96198
   D11       -2.29569  -0.00057  -0.00489   0.00000  -0.00461  -2.30030
   D12       -0.15041   0.00025   0.00236   0.00000   0.00231  -0.14810
   D13        0.08755  -0.00157  -0.01372   0.00000  -0.01383   0.07372
   D14       -3.05428  -0.00178  -0.01694   0.00000  -0.01682  -3.07110
         Item               Value     Threshold  Converged?
 Maximum Force            0.100176     0.000450     NO 
 RMS     Force            0.019568     0.000300     NO 
 Maximum Displacement     0.820564     0.001800     NO 
 RMS     Displacement     0.148597     0.001200     NO 
 Predicted change in Energy=-6.303006D-02
 GradGradGradGradGradGradGradGradGradGradGradGradGradGradGradGradGradGrad

                          Input orientation:                          
 ---------------------------------------------------------------------
 Center     Atomic      Atomic             Coordinates (Angstroms)
 Number     Number       Type             X           Y           Z
 ---------------------------------------------------------------------
      1          6           0        1.577974    1.292151    0.014399
      2          1           0        2.035401    1.398330    1.006822
      3          1           0        0.899650    2.125145   -0.170001
      4          1           0        2.392901    1.284843   -0.716616
      5          6           0        0.884813   -0.007315   -0.020247
      6          6           0        1.584880   -1.295236    0.025528
      7          1           0        2.139503   -1.384886   -0.916627
      8          1           0        2.310859   -1.253748    0.842169
      9          1           0        0.908147   -2.142956    0.141696
     10          8           0       -0.333914   -0.106896   -0.086583
     11          1           0       -0.847863    0.804707   -0.187255
 ---------------------------------------------------------------------
                    Distance matrix (angstroms):
                    1          2          3          4          5
     1  C    0.000000
     2  H    1.097916   0.000000
     3  H    1.089956   1.789722   0.000000
     4  H    1.094779   1.763781   1.798526   0.000000
     5  C    1.473188   2.086758   2.137763   2.104502   0.000000
     6  C    2.587421   2.901931   3.493820   2.803655   1.466605
     7  H    2.889403   3.384787   3.796709   2.689176   2.067715
     8  H    2.775595   2.671423   3.799067   2.980097   2.081096
     9  H    3.502119   3.815737   4.279476   3.832883   2.141899
    10  O    2.371253   3.012456   2.551596   3.125603   1.224587
    11  H    2.482528   3.176699   2.190355   3.318629   1.920791
                    6          7          8          9         10
     6  C    0.000000
     7  H    1.096950   0.000000
     8  H    1.093467   1.771983   0.000000
     9  H    1.090913   1.791914   1.802486   0.000000
    10  O    2.259754   2.905171   3.028642   2.395906   0.000000
    11  H    3.220757   3.775004   3.908257   3.446810   1.051332
                   11
    11  H    0.000000
 Stoichiometry    C3H7O(1+)
 Framework group  C1[X(C3H7O)]
 Deg. of freedom    27
 Full point group                 C1      NOp   1
 Largest Abelian subgroup         C1      NOp   1
 Largest concise Abelian subgroup C1      NOp   1
                         Standard orientation:                         
 ---------------------------------------------------------------------
 Center     Atomic      Atomic             Coordinates (Angstroms)
 Number     Number       Type             X           Y           Z
 ---------------------------------------------------------------------
      1          6           0        1.265086    0.683667    0.002374
      2          1           0        1.344796    1.204836   -0.960667
      3          1           0        2.128851    0.033857    0.142587
      4          1           0        1.225298    1.451546    0.781682
      5          6           0       -0.001605   -0.068506   -0.001311
      6          6           0       -1.320006    0.573949   -0.000450
      7          1           0       -1.429098    1.065722    0.974002
      8          1           0       -1.316002    1.349295   -0.771483
      9          1           0       -2.137031   -0.132213   -0.155040
     10          8           0       -0.045785   -1.292271   -0.009020
     11          1           0        0.888618   -1.769533    0.057393
 ---------------------------------------------------------------------
 Rotational constants (GHZ):          10.3243633           8.3539031           4.8997261
 Standard basis: 6-31+G(d) (6D, 7F)
 There are    90 symmetry adapted cartesian basis functions of A   symmetry.
 There are    90 symmetry adapted basis functions of A   symmetry.
    90 basis functions,   156 primitive gaussians,    90 cartesian basis functions
    16 alpha electrons       16 beta electrons
       nuclear repulsion energy       129.9026694556 Hartrees.
 NAtoms=   11 NActive=   11 NUniq=   11 SFac= 1.00D+00 NAtFMM=   60 NAOKFM=F Big=F
 Integral buffers will be    131072 words long.
 Raffenetti 2 integral format.
 Two-electron integral symmetry is turned on.
 Nuclear repulsion after empirical dispersion term =      129.8917065066 Hartrees.
 ------------------------------------------------------------------------------
 Polarizable Continuum Model (PCM)
 =================================
 Model                : PCM.
 Atomic radii         : UFF (Universal Force Field).
 Polarization charges : Total charges.
 Charge compensation  : None.
 Solution method      : On-the-fly selection.
 Cavity type          : Scaled VdW (van der Waals Surface) (Alpha=1.100).
 Cavity algorithm     : GePol (No added spheres)
                        Default sphere list used, NSphG=   11.
                        Lebedev-Laikov grids with approx.  5.0 points / Ang**2.
                        Smoothing algorithm: York/Karplus (Gamma=1.0000).
                        Polarization charges: spherical gaussians, with
                                              point-specific exponents (IZeta= 3).
                        Self-potential: point-specific (ISelfS= 7).
                        Self-field    : sphere-specific E.n sum rule (ISelfD= 2).
 1st derivatives      : Analytical E(r).r(x)/FMM algorithm (CHGder, D1EAlg=3).
                        Cavity 1st derivative terms included.
 Solvent              : Water, Eps=  78.355300 Eps(inf)=   1.777849
 ------------------------------------------------------------------------------
 Spheres list:
 ISph  on   Nord     Re0    Alpha      Xe            Ye            Ze
    1   C      1    1.9255  1.100      1.265086      0.683667      0.002374
    2   H      2    1.4430  1.100      1.344796      1.204836     -0.960667
    3   H      3    1.4430  1.100      2.128851      0.033857      0.142587
    4   H      4    1.4430  1.100      1.225298      1.451546      0.781682
    5   C      5    1.9255  1.100     -0.001605     -0.068506     -0.001311
    6   C      6    1.9255  1.100     -1.320006      0.573949     -0.000450
    7   H      7    1.4430  1.100     -1.429098      1.065722      0.974002
    8   H      8    1.4430  1.100     -1.316002      1.349295     -0.771483
    9   H      9    1.4430  1.100     -2.137031     -0.132213     -0.155040
   10   O     10    1.7500  1.100     -0.045785     -1.292271     -0.009020
   11   H     11    1.4430  1.100      0.888618     -1.769533      0.057393
 ------------------------------------------------------------------------------
 One-electron integrals computed using PRISM.
 PrsmSu:  requested number of processors reduced to:  30 ShMem   1 Linda.
 NBasis=    90 RedAO= T EigKep=  1.13D-04  NBF=    90
 NBsUse=    90 1.00D-06 EigRej= -1.00D+00 NBFU=    90
 Initial guess from the checkpoint file:  "intermediate.chk"
 B after Tr=     0.000000    0.000000   -0.000000
         Rot=    0.988026    0.000730    0.000052    0.154287 Ang=  17.75 deg.
 ExpMin= 4.38D-02 ExpMax= 5.48D+03 ExpMxC= 8.25D+02 IAcc=3 IRadAn=         5 AccDes= 0.00D+00
 Harris functional with IExCor=  402 and IRadAn=       5 diagonalized for initial guess.
 HarFok:  IExCor=  402 AccDes= 0.00D+00 IRadAn=         5 IDoV= 1 UseB2=F ITyADJ=14
 ICtDFT=  3500011 ScaDFX=  1.000000  1.000000  1.000000  1.000000
 FoFCou: FMM=F IPFlag=           0 FMFlag=      100000 FMFlg1=           0
         NFxFlg=           0 DoJE=T BraDBF=F KetDBF=T FulRan=T
         wScrn=  0.000000 ICntrl=       500 IOpCl=  0 I1Cent=   200000004 NGrid=           0
         NMat0=    1 NMatS0=      1 NMatT0=    0 NMatD0=    1 NMtDS0=    0 NMtDT0=    0
 Petite list used in FoFCou.
 Keep R1 ints in memory in canonical form, NReq=37643132.
 Requested convergence on RMS density matrix=1.00D-08 within 128 cycles.
 Requested convergence on MAX density matrix=1.00D-06.
 Requested convergence on             energy=1.00D-06.
 No special actions if energy rises.
 Inv3:  Mode=1 IEnd=     2572428.
 Iteration    1 A*A^-1 deviation from unit magnitude is 3.11D-15 for    877.
 Iteration    1 A*A^-1 deviation from orthogonality  is 1.62D-15 for    842     80.
 Iteration    1 A^-1*A deviation from unit magnitude is 2.66D-15 for    877.
 Iteration    1 A^-1*A deviation from orthogonality  is 3.70D-15 for    688    658.
 Error on total polarization charges =  0.00558
 SCF Done:  E(RB3LYP) =  -193.578306230     A.U. after   11 cycles
            NFock= 11  Conv=0.24D-08     -V/T= 2.0095
 PrsmSu:  requested number of processors reduced to:  30 ShMem   1 Linda.
 D1PCM: PCM CHGder 1st derivatives, ID1Alg=3 FixD1E=F DoIter=F DoCFld=F I1PDM=0.
 CoulSu:  requested number of processors reduced to:  29 ShMem   1 Linda.
 CoulSu:  requested number of processors reduced to:  30 ShMem   1 Linda.
 Calling FoFJK, ICntrl=      2127 FMM=F ISym2X=0 I1Cent= 0 IOpClX= 0 NMat=1 NMatS=1 NMatT=0.
 ***** Axes restored to original set *****
 -------------------------------------------------------------------
 Center     Atomic                   Forces (Hartrees/Bohr)
 Number     Number              X              Y              Z
 -------------------------------------------------------------------
      1        6           0.002693907   -0.000469450   -0.000764913
      2        1           0.000579681    0.000749675   -0.000166260
      3        1           0.000052800    0.001375026   -0.000320412
      4        1           0.000711146    0.001051794    0.000507035
      5        6           0.057607882    0.000498949    0.003421583
      6        6           0.009975329   -0.001331490    0.002699798
      7        1           0.002841214   -0.001915459    0.000431336
      8        1           0.003603860   -0.003381057   -0.000927871
      9        1          -0.000826788    0.002246124   -0.000180407
     10        8          -0.098979662    0.041255299   -0.011383664
     11        1           0.021740630   -0.040079411    0.006683775
 -------------------------------------------------------------------
 Cartesian Forces:  Max     0.098979662 RMS     0.022861416

 GradGradGradGradGradGradGradGradGradGradGradGradGradGradGradGradGradGrad
 Berny optimization.
 Using GEDIIS/GDIIS optimizer.
 FormGI is forming the generalized inverse of G from B-inverse, IUseBI=4.
 Internal  Forces:  Max     0.077030282 RMS     0.014646204
 Search for a local minimum.
 Step number   3 out of a maximum of   50
 All quantities printed in internal units (Hartrees-Bohrs-Radians)
 Mixed Optimization -- RFO/linear search
 Update second derivatives using D2CorX and points    2    3
 ITU=  0  1  0
 Use linear search instead of GDIIS.
     Eigenvalues ---    0.00699   0.00700   0.00930   0.02453   0.07126
     Eigenvalues ---    0.07131   0.07758   0.07924   0.10395   0.15906
     Eigenvalues ---    0.16000   0.16000   0.16000   0.16000   0.16000
     Eigenvalues ---    0.16669   0.24986   0.25591   0.31830   0.32119
     Eigenvalues ---    0.33788   0.33795   0.33991   0.33998   0.34443
     Eigenvalues ---    0.34448   0.70369
 RFO step:  Lambda=-2.44031226D-02 EMin= 6.99471121D-03
 Quartic linear search produced a step of  0.06938.
 Iteration  1 RMS(Cart)=  0.03342529 RMS(Int)=  0.02231944
 Iteration  2 RMS(Cart)=  0.02008942 RMS(Int)=  0.00012044
 Iteration  3 RMS(Cart)=  0.00005979 RMS(Int)=  0.00010033
 Iteration  4 RMS(Cart)=  0.00000001 RMS(Int)=  0.00010033
 Variable       Old X    -DE/DX   Delta X   Delta X   Delta X     New X
                                 (Linear)    (Quad)   (Total)
    R1        2.07476   0.00018  -0.00010   0.00043   0.00033   2.07509
    R2        2.05972   0.00107  -0.00028   0.00275   0.00247   2.06219
    R3        2.06883   0.00016  -0.00021   0.00030   0.00009   2.06892
    R4        2.78392   0.00426  -0.00278   0.01063   0.00786   2.79178
    R5        2.77148   0.01136  -0.00336   0.03133   0.02797   2.79945
    R6        2.31413   0.07703  -0.01029   0.12284   0.11255   2.42669
    R7        2.07294   0.00122  -0.00018   0.00328   0.00310   2.07604
    R8        2.06635   0.00158  -0.00033   0.00416   0.00384   2.07019
    R9        2.06153  -0.00126  -0.00020  -0.00362  -0.00382   2.05771
   R10        1.98673  -0.04602  -0.03469  -0.30358  -0.33827   1.64846
    A1        1.91591  -0.00081   0.00011  -0.00450  -0.00440   1.91151
    A2        1.86929  -0.00130   0.00024  -0.00754  -0.00732   1.86197
    A3        1.87821   0.00082  -0.00085   0.00414   0.00327   1.88148
    A4        1.93413  -0.00111   0.00023  -0.00564  -0.00543   1.92870
    A5        1.95770   0.00083   0.00097   0.00499   0.00594   1.96364
    A6        1.90567   0.00153  -0.00076   0.00827   0.00749   1.91316
    A7        2.15230  -0.00919   0.00469  -0.03137  -0.02668   2.12562
    A8        2.14274  -0.00338   0.00123  -0.01198  -0.01074   2.13200
    A9        1.98814   0.01257  -0.00592   0.04334   0.03741   2.02555
   A10        1.86117   0.00382  -0.00167   0.01991   0.01811   1.87927
   A11        1.88274   0.00668  -0.00181   0.03747   0.03559   1.91832
   A12        1.97101  -0.00475   0.00160  -0.02614  -0.02441   1.94660
   A13        1.88480  -0.00446   0.00095  -0.02365  -0.02308   1.86172
   A14        1.91941  -0.00022   0.00028  -0.00316  -0.00279   1.91662
   A15        1.94101  -0.00085   0.00055  -0.00327  -0.00256   1.93845
   A16        2.00556   0.00142  -0.01827   0.00472  -0.01354   1.99202
    D1       -1.17323  -0.00001   0.00030  -0.00310  -0.00283  -1.17606
    D2        1.96483  -0.00011   0.00007  -0.00563  -0.00555   1.95928
    D3        3.00092  -0.00006   0.00012  -0.00333  -0.00321   2.99770
    D4       -0.14421  -0.00016  -0.00010  -0.00586  -0.00594  -0.15014
    D5        0.85002  -0.00030  -0.00030  -0.00545  -0.00577   0.84425
    D6       -2.29510  -0.00040  -0.00053  -0.00798  -0.00849  -2.30360
    D7       -1.18286  -0.00028   0.00016  -0.00449  -0.00453  -1.18739
    D8        0.83804  -0.00028  -0.00053  -0.00361  -0.00393   0.83412
    D9        2.99024   0.00028  -0.00005   0.00178   0.00169   2.99193
   D10        1.96198  -0.00016   0.00037  -0.00208  -0.00188   1.96009
   D11       -2.30030  -0.00016  -0.00032  -0.00120  -0.00128  -2.30158
   D12       -0.14810   0.00040   0.00016   0.00419   0.00433  -0.14377
   D13        0.07372  -0.00193  -0.00096  -0.03728  -0.03822   0.03550
   D14       -3.07110  -0.00207  -0.00117  -0.03972  -0.04091  -3.11201
         Item               Value     Threshold  Converged?
 Maximum Force            0.077030     0.000450     NO 
 RMS     Force            0.014646     0.000300     NO 
 Maximum Displacement     0.176966     0.001800     NO 
 RMS     Displacement     0.045257     0.001200     NO 
 Predicted change in Energy=-1.536680D-02
 GradGradGradGradGradGradGradGradGradGradGradGradGradGradGradGradGradGrad

                          Input orientation:                          
 ---------------------------------------------------------------------
 Center     Atomic      Atomic             Coordinates (Angstroms)
 Number     Number       Type             X           Y           Z
 ---------------------------------------------------------------------
      1          6           0        1.582182    1.298650    0.010908
      2          1           0        2.033477    1.402830    1.006541
      3          1           0        0.923266    2.147006   -0.181377
      4          1           0        2.407538    1.283359   -0.708254
      5          6           0        0.866702    0.006695   -0.027717
      6          6           0        1.587435   -1.286438    0.026276
      7          1           0        2.153341   -1.392196   -0.909390
      8          1           0        2.322791   -1.270104    0.838125
      9          1           0        0.899479   -2.123035    0.138125
     10          8           0       -0.413301   -0.063689   -0.103034
     11          1           0       -0.810558    0.711061   -0.156918
 ---------------------------------------------------------------------
                    Distance matrix (angstroms):
                    1          2          3          4          5
     1  C    0.000000
     2  H    1.098092   0.000000
     3  H    1.091261   1.788161   0.000000
     4  H    1.094825   1.759180   1.796260   0.000000
     5  C    1.477346   2.092904   2.146565   2.113570   0.000000
     6  C    2.585139   2.896901   3.503252   2.795704   1.481406
     7  H    2.900660   3.390772   3.816941   2.695120   2.095157
     8  H    2.798444   2.693816   3.830757   2.986410   2.121342
     9  H    3.491446   3.804185   4.282044   3.820225   2.136429
    10  O    2.418864   3.060811   2.584516   3.184018   1.284148
    11  H    2.469541   3.149718   2.251374   3.314761   1.823739
                    6          7          8          9         10
     6  C    0.000000
     7  H    1.098592   0.000000
     8  H    1.095497   1.759951   0.000000
     9  H    1.088893   1.789855   1.800918   0.000000
    10  O    2.348357   3.000466   3.134871   2.454069   0.000000
    11  H    3.126329   3.711415   3.838359   3.323158   0.872327
                   11
    11  H    0.000000
 Stoichiometry    C3H7O(1+)
 Framework group  C1[X(C3H7O)]
 Deg. of freedom    27
 Full point group                 C1      NOp   1
 Largest Abelian subgroup         C1      NOp   1
 Largest concise Abelian subgroup C1      NOp   1
                         Standard orientation:                         
 ---------------------------------------------------------------------
 Center     Atomic      Atomic             Coordinates (Angstroms)
 Number     Number       Type             X           Y           Z
 ---------------------------------------------------------------------
      1          6           0        1.236952    0.740614    0.002895
      2          1           0        1.300190    1.259359   -0.962875
      3          1           0        2.132393    0.134644    0.150666
      4          1           0        1.167513    1.516323    0.772372
      5          6           0        0.000679   -0.068198    0.001029
      6          6           0       -1.341741    0.558265   -0.003342
      7          1           0       -1.480856    1.055652    0.966275
      8          1           0       -1.385270    1.341923   -0.767605
      9          1           0       -2.127064   -0.180581   -0.155208
     10          8           0        0.023979   -1.352125   -0.003710
     11          1           0        0.825921   -1.694401    0.022566
 ---------------------------------------------------------------------
 Rotational constants (GHZ):           9.6673436           8.3943768           4.7567576
 Standard basis: 6-31+G(d) (6D, 7F)
 There are    90 symmetry adapted cartesian basis functions of A   symmetry.
 There are    90 symmetry adapted basis functions of A   symmetry.
    90 basis functions,   156 primitive gaussians,    90 cartesian basis functions
    16 alpha electrons       16 beta electrons
       nuclear repulsion energy       128.8201031296 Hartrees.
 NAtoms=   11 NActive=   11 NUniq=   11 SFac= 1.00D+00 NAtFMM=   60 NAOKFM=F Big=F
 Integral buffers will be    131072 words long.
 Raffenetti 2 integral format.
 Two-electron integral symmetry is turned on.
 Nuclear repulsion after empirical dispersion term =      128.8091802258 Hartrees.
 ------------------------------------------------------------------------------
 Polarizable Continuum Model (PCM)
 =================================
 Model                : PCM.
 Atomic radii         : UFF (Universal Force Field).
 Polarization charges : Total charges.
 Charge compensation  : None.
 Solution method      : On-the-fly selection.
 Cavity type          : Scaled VdW (van der Waals Surface) (Alpha=1.100).
 Cavity algorithm     : GePol (No added spheres)
                        Default sphere list used, NSphG=   11.
                        Lebedev-Laikov grids with approx.  5.0 points / Ang**2.
                        Smoothing algorithm: York/Karplus (Gamma=1.0000).
                        Polarization charges: spherical gaussians, with
                                              point-specific exponents (IZeta= 3).
                        Self-potential: point-specific (ISelfS= 7).
                        Self-field    : sphere-specific E.n sum rule (ISelfD= 2).
 1st derivatives      : Analytical E(r).r(x)/FMM algorithm (CHGder, D1EAlg=3).
                        Cavity 1st derivative terms included.
 Solvent              : Water, Eps=  78.355300 Eps(inf)=   1.777849
 ------------------------------------------------------------------------------
 Spheres list:
 ISph  on   Nord     Re0    Alpha      Xe            Ye            Ze
    1   C      1    1.9255  1.100      1.236952      0.740614      0.002895
    2   H      2    1.4430  1.100      1.300190      1.259359     -0.962875
    3   H      3    1.4430  1.100      2.132393      0.134644      0.150666
    4   H      4    1.4430  1.100      1.167513      1.516323      0.772372
    5   C      5    1.9255  1.100      0.000679     -0.068198      0.001029
    6   C      6    1.9255  1.100     -1.341741      0.558265     -0.003342
    7   H      7    1.4430  1.100     -1.480856      1.055652      0.966275
    8   H      8    1.4430  1.100     -1.385270      1.341923     -0.767605
    9   H      9    1.4430  1.100     -2.127064     -0.180581     -0.155208
   10   O     10    1.7500  1.100      0.023979     -1.352125     -0.003710
   11   H     11    1.4430  1.100      0.825921     -1.694401      0.022566
 ------------------------------------------------------------------------------
 One-electron integrals computed using PRISM.
 PrsmSu:  requested number of processors reduced to:  30 ShMem   1 Linda.
 NBasis=    90 RedAO= T EigKep=  1.14D-04  NBF=    90
 NBsUse=    90 1.00D-06 EigRej= -1.00D+00 NBFU=    90
 Initial guess from the checkpoint file:  "intermediate.chk"
 B after Tr=     0.000000   -0.000000   -0.000000
         Rot=    0.999856    0.000732    0.000154   -0.016982 Ang=   1.95 deg.
 ExpMin= 4.38D-02 ExpMax= 5.48D+03 ExpMxC= 8.25D+02 IAcc=3 IRadAn=         5 AccDes= 0.00D+00
 Harris functional with IExCor=  402 and IRadAn=       5 diagonalized for initial guess.
 HarFok:  IExCor=  402 AccDes= 0.00D+00 IRadAn=         5 IDoV= 1 UseB2=F ITyADJ=14
 ICtDFT=  3500011 ScaDFX=  1.000000  1.000000  1.000000  1.000000
 FoFCou: FMM=F IPFlag=           0 FMFlag=      100000 FMFlg1=           0
         NFxFlg=           0 DoJE=T BraDBF=F KetDBF=T FulRan=T
         wScrn=  0.000000 ICntrl=       500 IOpCl=  0 I1Cent=   200000004 NGrid=           0
         NMat0=    1 NMatS0=      1 NMatT0=    0 NMatD0=    1 NMtDS0=    0 NMtDT0=    0
 Petite list used in FoFCou.
 Keep R1 ints in memory in canonical form, NReq=37643132.
 Requested convergence on RMS density matrix=1.00D-08 within 128 cycles.
 Requested convergence on MAX density matrix=1.00D-06.
 Requested convergence on             energy=1.00D-06.
 No special actions if energy rises.
 Inv3:  Mode=1 IEnd=     2600283.
 Iteration    1 A*A^-1 deviation from unit magnitude is 3.33D-15 for    905.
 Iteration    1 A*A^-1 deviation from orthogonality  is 1.92D-15 for    923    789.
 Iteration    1 A^-1*A deviation from unit magnitude is 3.11D-15 for    905.
 Iteration    1 A^-1*A deviation from orthogonality  is 2.27D-15 for    899    108.
 Error on total polarization charges =  0.00542
 SCF Done:  E(RB3LYP) =  -193.572725166     A.U. after   10 cycles
            NFock= 10  Conv=0.39D-08     -V/T= 2.0091
 PrsmSu:  requested number of processors reduced to:  30 ShMem   1 Linda.
 D1PCM: PCM CHGder 1st derivatives, ID1Alg=3 FixD1E=F DoIter=F DoCFld=F I1PDM=0.
 CoulSu:  requested number of processors reduced to:  29 ShMem   1 Linda.
 CoulSu:  requested number of processors reduced to:  30 ShMem   1 Linda.
 Calling FoFJK, ICntrl=      2127 FMM=F ISym2X=0 I1Cent= 0 IOpClX= 0 NMat=1 NMatS=1 NMatT=0.
 ***** Axes restored to original set *****
 -------------------------------------------------------------------
 Center     Atomic                   Forces (Hartrees/Bohr)
 Number     Number              X              Y              Z
 -------------------------------------------------------------------
      1        6          -0.005627665    0.000017042   -0.001342538
      2        1           0.000269217   -0.000310126    0.000603226
      3        1           0.000490473    0.000637360    0.000034241
      4        1           0.000473662   -0.000781235    0.000051385
      5        6           0.003745631   -0.006870656    0.001154341
      6        6          -0.004677078    0.004386170    0.000223907
      7        1           0.000448891    0.000111410   -0.000224874
      8        1           0.000240020    0.000766786   -0.000487814
      9        1          -0.000544196   -0.000488585   -0.000066454
     10        8           0.072178356   -0.126806708    0.008524714
     11        1          -0.066997310    0.129338541   -0.008470135
 -------------------------------------------------------------------
 Cartesian Forces:  Max     0.129338541 RMS     0.036010133

 GradGradGradGradGradGradGradGradGradGradGradGradGradGradGradGradGradGrad
 Berny optimization.
 Using GEDIIS/GDIIS optimizer.
 FormGI is forming the generalized inverse of G from B-inverse, IUseBI=4.
 Internal  Forces:  Max     0.145881853 RMS     0.023126900
 Search for a local minimum.
 Step number   4 out of a maximum of   50
 All quantities printed in internal units (Hartrees-Bohrs-Radians)
 Mixed Optimization -- RFO/linear search
 Update second derivatives using D2CorX and points    4    3
 DE=  5.58D-03 DEPred=-1.54D-02 R=-3.63D-01
 Trust test=-3.63D-01 RLast= 3.70D-01 DXMaxT set to 2.52D-01
 ITU= -1  0  1  0
 Use linear search instead of GDIIS.
     Eigenvalues ---    0.00699   0.00700   0.00940   0.02452   0.07049
     Eigenvalues ---    0.07139   0.07707   0.07729   0.15682   0.15999
     Eigenvalues ---    0.16000   0.16000   0.16000   0.16000   0.16616
     Eigenvalues ---    0.24848   0.25035   0.31611   0.31845   0.33786
     Eigenvalues ---    0.33789   0.33990   0.33991   0.34439   0.34444
     Eigenvalues ---    0.45858   0.60405
 RFO step:  Lambda=-8.04391394D-03 EMin= 6.99457718D-03
 Quartic linear search produced a step of -0.53195.
 Iteration  1 RMS(Cart)=  0.04758942 RMS(Int)=  0.00506664
 Iteration  2 RMS(Cart)=  0.00462867 RMS(Int)=  0.00005283
 Iteration  3 RMS(Cart)=  0.00003802 RMS(Int)=  0.00003606
 Iteration  4 RMS(Cart)=  0.00000000 RMS(Int)=  0.00003606
 Variable       Old X    -DE/DX   Delta X   Delta X   Delta X     New X
                                 (Linear)    (Quad)   (Total)
    R1        2.07509   0.00063  -0.00018   0.00129   0.00111   2.07621
    R2        2.06219   0.00021  -0.00131   0.00275   0.00144   2.06363
    R3        2.06892   0.00031  -0.00005   0.00071   0.00066   2.06958
    R4        2.79178  -0.00254  -0.00418   0.00696   0.00278   2.79456
    R5        2.79945  -0.00637  -0.01488   0.01923   0.00436   2.80381
    R6        2.42669  -0.00530  -0.05987   0.09747   0.03760   2.46429
    R7        2.07604   0.00043  -0.00165   0.00371   0.00206   2.07809
    R8        2.07019  -0.00018  -0.00204   0.00352   0.00148   2.07167
    R9        2.05771   0.00069   0.00203  -0.00213  -0.00010   2.05761
   R10        1.64846   0.14588   0.17994   0.05404   0.23398   1.88244
    A1        1.91151  -0.00013   0.00234  -0.00465  -0.00231   1.90921
    A2        1.86197   0.00012   0.00389  -0.01136  -0.00746   1.85451
    A3        1.88148  -0.00073  -0.00174   0.00070  -0.00103   1.88045
    A4        1.92870   0.00013   0.00289  -0.00377  -0.00089   1.92781
    A5        1.96364   0.00157  -0.00316   0.01216   0.00900   1.97264
    A6        1.91316  -0.00106  -0.00398   0.00570   0.00171   1.91487
    A7        2.12562   0.00354   0.01419  -0.02403  -0.00986   2.11576
    A8        2.13200  -0.00394   0.00572  -0.01662  -0.01092   2.12107
    A9        2.02555   0.00039  -0.01990   0.04058   0.02066   2.04621
   A10        1.87927  -0.00006  -0.00963   0.01923   0.00964   1.88891
   A11        1.91832  -0.00083  -0.01893   0.03882   0.01991   1.93823
   A12        1.94660   0.00024   0.01298  -0.02654  -0.01359   1.93301
   A13        1.86172  -0.00015   0.01228  -0.02846  -0.01608   1.84563
   A14        1.91662   0.00012   0.00149  -0.00404  -0.00258   1.91404
   A15        1.93845   0.00064   0.00136   0.00146   0.00278   1.94123
   A16        1.99202   0.00100   0.00720  -0.01423  -0.00703   1.98499
    D1       -1.17606   0.00018   0.00150  -0.02479  -0.02333  -1.19939
    D2        1.95928   0.00029   0.00295  -0.03832  -0.03532   1.92396
    D3        2.99770  -0.00014   0.00171  -0.02703  -0.02536   2.97234
    D4       -0.15014  -0.00004   0.00316  -0.04056  -0.03735  -0.18750
    D5        0.84425  -0.00064   0.00307  -0.03486  -0.03184   0.81241
    D6       -2.30360  -0.00053   0.00452  -0.04839  -0.04384  -2.34743
    D7       -1.18739   0.00026   0.00241  -0.01753  -0.01511  -1.20250
    D8        0.83412  -0.00039   0.00209  -0.02009  -0.01810   0.81601
    D9        2.99193  -0.00000  -0.00090  -0.00898  -0.00991   2.98202
   D10        1.96009   0.00018   0.00100  -0.00460  -0.00351   1.95658
   D11       -2.30158  -0.00048   0.00068  -0.00716  -0.00650  -2.30809
   D12       -0.14377  -0.00009  -0.00231   0.00395   0.00169  -0.14208
   D13        0.03550  -0.00048   0.02033  -0.12187  -0.10152  -0.06602
   D14       -3.11201  -0.00036   0.02176  -0.13488  -0.11315   3.05802
         Item               Value     Threshold  Converged?
 Maximum Force            0.145882     0.000450     NO 
 RMS     Force            0.023127     0.000300     NO 
 Maximum Displacement     0.194170     0.001800     NO 
 RMS     Displacement     0.051772     0.001200     NO 
 Predicted change in Energy=-1.384175D-02
 GradGradGradGradGradGradGradGradGradGradGradGradGradGradGradGradGradGrad

                          Input orientation:                          
 ---------------------------------------------------------------------
 Center     Atomic      Atomic             Coordinates (Angstroms)
 Number     Number       Type             X           Y           Z
 ---------------------------------------------------------------------
      1          6           0        1.576424    1.287483    0.003408
      2          1           0        1.991778    1.405514    1.013681
      3          1           0        0.928049    2.136395   -0.223469
      4          1           0        2.432394    1.266409   -0.679437
      5          6           0        0.868418   -0.009966   -0.043996
      6          6           0        1.609586   -1.293531    0.023314
      7          1           0        2.182771   -1.408985   -0.908043
      8          1           0        2.352161   -1.277678    0.829640
      9          1           0        0.922325   -2.130415    0.136767
     10          8           0       -0.431414   -0.074897   -0.126193
     11          1           0       -0.880140    0.813811   -0.092388
 ---------------------------------------------------------------------
                    Distance matrix (angstroms):
                    1          2          3          4          5
     1  C    0.000000
     2  H    1.098681   0.000000
     3  H    1.092024   1.787805   0.000000
     4  H    1.095174   1.755033   1.796618   0.000000
     5  C    1.478815   2.093849   2.154677   2.116350   0.000000
     6  C    2.581304   2.900300   3.505679   2.779238   1.483711
     7  H    2.910213   3.413343   3.822655   2.696721   2.105078
     8  H    2.804367   2.713534   3.846170   2.959075   2.138182
     9  H    3.482479   3.796775   4.281994   3.805905   2.128822
    10  O    2.429874   3.059867   2.597578   3.210385   1.304046
    11  H    2.503647   3.133913   2.244094   3.394459   1.933496
                    6          7          8          9         10
     6  C    0.000000
     7  H    1.099680   0.000000
     8  H    1.096280   1.750850   0.000000
     9  H    1.088841   1.789082   1.803237   0.000000
    10  O    2.381828   3.037276   3.179400   2.475261   0.000000
    11  H    3.263895   3.871374   3.958816   3.459749   0.996142
                   11
    11  H    0.000000
 Stoichiometry    C3H7O(1+)
 Framework group  C1[X(C3H7O)]
 Deg. of freedom    27
 Full point group                 C1      NOp   1
 Largest Abelian subgroup         C1      NOp   1
 Largest concise Abelian subgroup C1      NOp   1
                         Standard orientation:                         
 ---------------------------------------------------------------------
 Center     Atomic      Atomic             Coordinates (Angstroms)
 Number     Number       Type             X           Y           Z
 ---------------------------------------------------------------------
      1          6           0        1.160550    0.846617    0.004406
      2          1           0        1.196199    1.338867   -0.977184
      3          1           0        2.107194    0.333904    0.187455
      4          1           0        1.007613    1.642438    0.741077
      5          6           0       -0.002268   -0.067020    0.008391
      6          6           0       -1.390890    0.455319   -0.008652
      7          1           0       -1.587377    0.941510    0.957943
      8          1           0       -1.507249    1.239907   -0.765430
      9          1           0       -2.104840   -0.351839   -0.164685
     10          8           0        0.148250   -1.362349    0.006694
     11          1           0        1.098112   -1.655484   -0.057591
 ---------------------------------------------------------------------
 Rotational constants (GHZ):           9.4179480           8.3796274           4.6893043
 Standard basis: 6-31+G(d) (6D, 7F)
 There are    90 symmetry adapted cartesian basis functions of A   symmetry.
 There are    90 symmetry adapted basis functions of A   symmetry.
    90 basis functions,   156 primitive gaussians,    90 cartesian basis functions
    16 alpha electrons       16 beta electrons
       nuclear repulsion energy       127.4176377209 Hartrees.
 NAtoms=   11 NActive=   11 NUniq=   11 SFac= 1.00D+00 NAtFMM=   60 NAOKFM=F Big=F
 Integral buffers will be    131072 words long.
 Raffenetti 2 integral format.
 Two-electron integral symmetry is turned on.
 Nuclear repulsion after empirical dispersion term =      127.4067787088 Hartrees.
 ------------------------------------------------------------------------------
 Polarizable Continuum Model (PCM)
 =================================
 Model                : PCM.
 Atomic radii         : UFF (Universal Force Field).
 Polarization charges : Total charges.
 Charge compensation  : None.
[...]
                                 (Linear)    (Quad)   (Total)
    R1        2.08089  -0.00000   0.00000  -0.00000  -0.00000   2.08088
    R2        2.06288   0.00000   0.00000  -0.00000  -0.00000   2.06288
    R3        2.06679   0.00000   0.00000   0.00001   0.00001   2.06680
    R4        2.78530   0.00000   0.00000  -0.00001  -0.00001   2.78529
    R5        2.78045  -0.00000   0.00000   0.00000   0.00000   2.78045
    R6        2.41981   0.00000   0.00000   0.00000   0.00000   2.41981
    R7        2.08020   0.00000   0.00000   0.00002   0.00002   2.08022
    R8        2.06819  -0.00000   0.00000  -0.00003  -0.00003   2.06817
    R9        2.05985   0.00000   0.00000   0.00001   0.00001   2.05986
   R10        1.85618  -0.00000   0.00000  -0.00000  -0.00000   1.85618
    A1        1.89977   0.00000   0.00000   0.00005   0.00005   1.89982
    A2        1.85999  -0.00000   0.00000  -0.00004  -0.00004   1.85996
    A3        1.86292   0.00000   0.00000   0.00001   0.00001   1.86293
    A4        1.93767  -0.00000   0.00000  -0.00001  -0.00001   1.93767
    A5        1.97612   0.00000   0.00000   0.00002   0.00002   1.97614
    A6        1.92202  -0.00000   0.00000  -0.00004  -0.00004   1.92198
    A7        2.13464  -0.00000   0.00000  -0.00001  -0.00001   2.13464
    A8        2.12688   0.00000   0.00000   0.00001   0.00001   2.12689
    A9        2.02162  -0.00000   0.00000  -0.00000  -0.00000   2.02161
   A10        1.86917  -0.00000   0.00000  -0.00007  -0.00007   1.86910
   A11        1.92171   0.00000   0.00000   0.00007   0.00007   1.92178
   A12        1.95226  -0.00000   0.00000  -0.00001  -0.00001   1.95224
   A13        1.85682   0.00000   0.00000   0.00005   0.00005   1.85687
   A14        1.90881  -0.00000   0.00000  -0.00009  -0.00009   1.90872
   A15        1.95074   0.00000   0.00000   0.00004   0.00004   1.95079
   A16        1.99127   0.00000   0.00000  -0.00001  -0.00001   1.99126
    D1       -1.35096   0.00000   0.00000   0.00039   0.00039  -1.35057
    D2        1.77969   0.00000   0.00000   0.00046   0.00046   1.78014
    D3        2.84227   0.00000   0.00000   0.00031   0.00031   2.84258
    D4       -0.31027   0.00000   0.00000   0.00038   0.00038  -0.30989
    D5        0.66140   0.00000   0.00000   0.00033   0.00033   0.66174
    D6       -2.49114   0.00000   0.00000   0.00040   0.00040  -2.49074
    D7       -1.30918  -0.00000   0.00000  -0.00081  -0.00081  -1.30999
    D8        0.70270  -0.00000   0.00000  -0.00075  -0.00075   0.70195
    D9        2.88287   0.00000   0.00000  -0.00065  -0.00065   2.88222
   D10        1.84274  -0.00000   0.00000  -0.00087  -0.00087   1.84187
   D11       -2.42856  -0.00000   0.00000  -0.00081  -0.00081  -2.42937
   D12       -0.24839   0.00000   0.00000  -0.00071  -0.00071  -0.24911
   D13        0.03671  -0.00000   0.00000  -0.00004  -0.00004   0.03667
   D14       -3.11517  -0.00000   0.00000   0.00002   0.00002  -3.11515
         Item               Value     Threshold  Converged?
 Maximum Force            0.000003     0.000450     YES
 RMS     Force            0.000001     0.000300     YES
 Maximum Displacement     0.001065     0.001800     YES
 RMS     Displacement     0.000370     0.001200     YES
 Predicted change in Energy=-2.638321D-09
 Optimization completed.
    -- Stationary point found.
                           ----------------------------
                           !   Optimized Parameters   !
                           ! (Angstroms and Degrees)  !
 --------------------------                            --------------------------
 ! Name  Definition              Value          Derivative Info.                !
 --------------------------------------------------------------------------------
 ! R1    R(1,2)                  1.1012         -DE/DX =    0.0                 !
 ! R2    R(1,3)                  1.0916         -DE/DX =    0.0                 !
 ! R3    R(1,4)                  1.0937         -DE/DX =    0.0                 !
 ! R4    R(1,5)                  1.4739         -DE/DX =    0.0                 !
 ! R5    R(5,6)                  1.4714         -DE/DX =    0.0                 !
 ! R6    R(5,10)                 1.2805         -DE/DX =    0.0                 !
 ! R7    R(6,7)                  1.1008         -DE/DX =    0.0                 !
 ! R8    R(6,8)                  1.0944         -DE/DX =    0.0                 !
 ! R9    R(6,9)                  1.09           -DE/DX =    0.0                 !
 ! R10   R(10,11)                0.9822         -DE/DX =    0.0                 !
 ! A1    A(2,1,3)              108.849          -DE/DX =    0.0                 !
 ! A2    A(2,1,4)              106.5698         -DE/DX =    0.0                 !
 ! A3    A(2,1,5)              106.7375         -DE/DX =    0.0                 !
 ! A4    A(3,1,4)              111.0205         -DE/DX =    0.0                 !
 ! A5    A(3,1,5)              113.2232         -DE/DX =    0.0                 !
 ! A6    A(4,1,5)              110.1237         -DE/DX =    0.0                 !
 ! A7    A(1,5,6)              122.3061         -DE/DX =    0.0                 !
 ! A8    A(1,5,10)             121.8611         -DE/DX =    0.0                 !
 ! A9    A(6,5,10)             115.83           -DE/DX =    0.0                 !
 ! A10   A(5,6,7)              107.0957         -DE/DX =    0.0                 !
 ! A11   A(5,6,8)              110.1057         -DE/DX =    0.0                 !
 ! A12   A(5,6,9)              111.856          -DE/DX =    0.0                 !
 ! A13   A(7,6,8)              106.3878         -DE/DX =    0.0                 !
 ! A14   A(7,6,9)              109.3668         -DE/DX =    0.0                 !
 ! A15   A(8,6,9)              111.7693         -DE/DX =    0.0                 !
 ! A16   A(5,10,11)            114.0913         -DE/DX =    0.0                 !
 ! D1    D(2,1,5,6)            -77.4041         -DE/DX =    0.0                 !
 ! D2    D(2,1,5,10)           101.9685         -DE/DX =    0.0                 !
 ! D3    D(3,1,5,6)            162.8503         -DE/DX =    0.0                 !
 ! D4    D(3,1,5,10)           -17.777          -DE/DX =    0.0                 !
 ! D5    D(4,1,5,6)             37.8957         -DE/DX =    0.0                 !
 ! D6    D(4,1,5,10)          -142.7317         -DE/DX =    0.0                 !
 ! D7    D(1,5,6,7)            -75.0106         -DE/DX =    0.0                 !
 ! D8    D(1,5,6,8)             40.2617         -DE/DX =    0.0                 !
 ! D9    D(1,5,6,9)            165.1761         -DE/DX =    0.0                 !
 ! D10   D(10,5,6,7)           105.5814         -DE/DX =    0.0                 !
 ! D11   D(10,5,6,8)          -139.1463         -DE/DX =    0.0                 !
 ! D12   D(10,5,6,9)           -14.2319         -DE/DX =    0.0                 !
 ! D13   D(1,5,10,11)            2.1031         -DE/DX =    0.0                 !
 ! D14   D(6,5,10,11)         -178.4859         -DE/DX =    0.0                 !
 --------------------------------------------------------------------------------
 GradGradGradGradGradGradGradGradGradGradGradGradGradGradGradGradGradGrad


 ----------------------------------------------------------------------

 Electric dipole moment (input orientation):
 (Debye = 10**-18 statcoulomb cm , SI units = C m)
                  (au)            (Debye)         (10**-30 SI)
   Tot        0.775042D+00      0.196996D+01      0.657108D+01
   x          0.794853D-01      0.202032D+00      0.673905D+00
   y          0.770908D+00      0.195945D+01      0.653603D+01
   z         -0.848369D-02     -0.215634D-01     -0.719277D-01

 Dipole polarizability, Alpha (input orientation).
 (esu units = cm**3 , SI units = C**2 m**2 J**-1)
 Alpha(0;0):
               (au)            (10**-24 esu)      (10**-40 SI)
   iso        0.436383D+02      0.646653D+01      0.719499D+01
   aniso      0.154339D+02      0.228707D+01      0.254471D+01
   xx         0.500468D+02      0.741617D+01      0.825160D+01
   yx        -0.124804D+01     -0.184940D+00     -0.205774D+00
   yy         0.471744D+02      0.699053D+01      0.777801D+01
   zx         0.872287D+00      0.129260D+00      0.143821D+00
   zy         0.922098D+00      0.136641D+00      0.152033D+00
   zz         0.336938D+02      0.499290D+01      0.555535D+01

 ----------------------------------------------------------------------

 Dipole orientation:
     6          2.69639267         -0.34611648          2.72903276
     1          3.01212433         -2.37419931          3.07149545
     1          1.43547367          0.38767676          4.18749361
     1          4.54979851          0.56341923          2.82519269
     6          1.65032526         -0.12017547          0.15753687
     6          3.23858547         -0.32124516         -2.11576678
     1          4.30457689          1.45783214         -2.27629415
     1          4.64092475         -1.82186159         -1.87283562
     1          2.11080983         -0.59771125         -3.81714572
     8         -0.70990235          0.24247133         -0.23400369
     1         -1.71747910          0.41349585          1.31549412

 Electric dipole moment (dipole orientation):
 (Debye = 10**-18 statcoulomb cm , SI units = C m)
                  (au)            (Debye)         (10**-30 SI)
   Tot        0.775042D+00      0.196996D+01      0.657108D+01
   x          0.000000D+00      0.000000D+00      0.000000D+00
   y          0.000000D+00      0.000000D+00      0.000000D+00
   z          0.775042D+00      0.196996D+01      0.657108D+01

 Dipole polarizability, Alpha (dipole orientation).
 (esu units = cm**3 , SI units = C**2 m**2 J**-1)
 Alpha(0;0):
               (au)            (10**-24 esu)      (10**-40 SI)
   iso        0.436383D+02      0.646653D+01      0.719499D+01
   aniso      0.154339D+02      0.228707D+01      0.254471D+01
   xx         0.499414D+02      0.740055D+01      0.823423D+01
   yx        -0.243570D+01     -0.360933D+00     -0.401592D+00
   yy         0.340472D+02      0.504527D+01      0.561362D+01
   zx        -0.105031D+01     -0.155640D+00     -0.173173D+00
   zy        -0.104936D+01     -0.155500D+00     -0.173017D+00
   zz         0.469263D+02      0.695377D+01      0.773711D+01

 ----------------------------------------------------------------------
 Unable to Open any file for archive entry.
 1\1\GINC-DUCKTER-ASUS\Freq\RB3LYP\6-31+G(d)\C3H7O1(1+)\DUCKTER\24-Jun-
 2024\0\\#N Geom=AllCheck Guess=TCheck SCRF=Check GenChk RB3LYP/6-31+G(
 d) Freq\\Title\\1,1\C,1.5786921812,1.2893326262,0.020038104\H,1.873268
 5683,1.4526922434,1.0684112647\H,0.9576402379,2.1256987552,-0.30621515
 25\H,2.504620151,1.2386408202,-0.5598427527\C,0.8791361115,-0.00713195
 35,-0.0272213817\C,1.5982704365,-1.2903484434,0.0055850971\H,2.0505589
 901,-1.4333166226,-0.9877632638\H,2.4275501771,-1.2387701361,0.7179295
 135\H,0.9305782188,-2.1242800936,0.2221644003\O,-0.3976024397,-0.08446
 37219,-0.08774388\H,-0.8503614526,0.7860860562,-0.1320572589\\Version=
 ES64L-G16RevC.01\State=1-A\HF=-193.5862422\RMSD=1.281e-09\RMSF=6.204e-
 06\ZeroPoint=0.0968657\Thermal=0.1022622\ETot=-193.48398\HTot=-193.483
 0359\GTot=-193.5173696\Dipole=0.0794853,0.7709083,-0.0084837\DipoleDer
 iv=-0.2870922,-0.240634,-0.0463911,-0.2723136,-0.4169842,-0.0986934,-0
 .129205,-0.2323797,-0.1339494,0.1954543,0.0310714,-0.00493,-0.0234636,
 0.1131257,0.0420881,0.0177083,0.0874759,0.0966369,-0.0035417,0.0562071
 ,-0.0392348,0.018283,0.0531705,0.0150884,-0.0154722,0.0599078,0.137221
 9,0.1211368,0.0724193,0.0410638,0.0375391,0.0861833,-0.0385661,0.08021
 03,0.031915,0.1391479,1.8731364,-0.0492616,0.0779034,0.0275751,1.42212
 24,0.1318233,0.0721517,0.0718818,0.3756572,-0.3054331,0.2847652,0.0362
 571,0.2551851,-0.3911176,-0.0613602,0.1181166,-0.1744855,-0.1278813,0.
 1917773,-0.0445434,0.0261561,0.0201489,0.1066952,0.0412497,0.0037182,0
 .0780127,0.0888821,0.1380489,-0.0792624,-0.0473614,-0.0264116,0.078182
 9,-0.0420588,-0.0813842,0.0144055,0.1189012,0.0423675,-0.0476447,0.015
 8002,-0.0214869,0.0409344,0.0154381,-0.0060892,0.0501985,0.1410514,-1.
 5238908,0.0687916,-0.0672731,0.0605415,-0.4360374,-0.0046308,-0.068715
 8,0.0075831,-0.2801185,0.5580365,-0.0519084,0.0080097,-0.0755971,0.343
 7249,-0.0003782,0.0089614,0.005485,0.4444505\Polar=50.0467677,-1.24803
 86,47.1744109,0.8722874,0.9220982,33.6937644\Quadrupole=1.1928345,1.57
 43626,-2.7671971,-2.7094932,0.2697899,0.1368603\PG=C01 [X(C3H7O1)]\NIm
 ag=0\\0.57704749,-0.05849809,0.54818787,-0.01230276,-0.03199892,0.5157
 9872,-0.05332411,-0.00967446,-0.07184820,0.06183589,-0.01265762,-0.051
 25377,-0.03992604,0.01392923,0.05219554,-0.06833490,-0.03440664,-0.277
 42708,0.07600650,0.04295256,0.30222161,-0.14646672,0.12346051,-0.04728
 707,-0.00514586,0.00626974,-0.00126028,0.15251725,0.11920690,-0.209490
 72,0.06600771,-0.00387921,0.00561793,-0.00145948,-0.12824610,0.2295846
 4,-0.04583458,0.06828246,-0.06969849,-0.01610203,0.02313736,-0.0070302
 8,0.05357227,-0.07002602,0.07136843,-0.24182881,0.01501872,0.12871117,
 0.00744489,0.00045877,-0.00491512,-0.01165860,-0.00095632,0.00798579,0
 .26206622,0.01598063,-0.05270629,-0.00527064,0.00559191,-0.00001440,-0
 .00297343,0.01880419,0.00137625,-0.01434226,-0.00999625,0.05299720,0.1
 2927263,-0.00124539,-0.11733127,0.02615550,-0.00040548,-0.01643130,-0.
 01046280,-0.00150074,0.00609137,-0.13762027,0.00709699,0.12813017,-0.1
 0875509,-0.05129815,0.01095719,-0.01019208,-0.00663374,-0.00463317,0.0
 1077465,0.01854187,-0.00008509,-0.01868824,-0.02600292,-0.00708676,0.7
 7209070,-0.03120921,-0.21535372,0.01523070,-0.00508299,-0.00319385,-0.
 00631018,-0.01616458,-0.02566772,-0.00715092,-0.00273709,0.00585921,-0
 .00278312,-0.00365442,0.61137342,0.00565948,0.00170915,-0.09177742,-0.
 01938475,-0.03298676,-0.00135454,0.00746514,0.00899198,-0.00242235,0.0
 0593900,0.02091029,-0.00041306,0.02542465,-0.00660517,0.25443324,0.017
 07377,-0.00834662,0.00343956,-0.00096406,0.00059853,-0.00202808,-0.001
 09031,-0.00455105,-0.00185660,0.00049581,0.00100833,-0.00034748,-0.102
 38902,0.03462133,-0.00678478,0.58094429,0.00878080,-0.02284218,-0.0015
 9272,0.00081462,-0.00125582,0.00081637,-0.00214758,-0.00217110,-0.0007
 9872,0.00141216,-0.00019584,0.00000311,0.05631407,-0.21897199,0.006671
 02,0.06064137,0.55365193,-0.00211103,-0.00258796,0.01208645,0.00152973
 ,0.00296927,0.00049395,-0.00146679,0.00008303,0.00227341,-0.00005996,-
 0.00262479,0.00019382,-0.01139607,0.01575924,-0.08938870,0.01579456,-0
 .02162156,0.51881337,-0.00103712,-0.00096884,-0.00174231,0.00027284,-0
 .00070909,0.00032673,-0.00002475,0.00003861,0.00005398,0.00042153,-0.0
 0037924,0.00005293,-0.01420101,0.00580787,0.01748466,-0.07937994,0.012
 74386,0.10311702,0.09098987,-0.00078440,-0.00114578,0.00266351,0.00065
 892,0.00090867,0.00036229,-0.00051796,-0.00003795,0.00081138,-0.000150
 72,-0.00169891,0.00004312,0.01067443,-0.00307755,-0.03041151,0.0165284
 7,-0.05005286,-0.03283950,-0.01843275,0.05143066,0.00165979,0.00064926
 ,0.00073202,-0.00027024,0.00028129,-0.00000294,0.00000311,-0.00005911,
 -0.00005060,-0.00051721,0.00056468,0.00027267,0.00289673,-0.00411226,-
 0.00054510,0.09993007,-0.02870987,-0.25260533,-0.10989084,0.03533433,0
 .27726302,0.00038079,-0.00182130,0.00000093,0.00040211,-0.00008150,0.0
 0067157,-0.00015957,-0.00004287,0.00042157,-0.00015530,-0.00005058,0.0
 0006395,-0.01821701,0.00249601,-0.00870548,-0.20000514,-0.01483114,-0.
 14016278,0.01000511,-0.00036844,0.00892318,0.21807915,-0.00132128,0.00
 022542,-0.00353058,0.00003357,-0.00114294,0.00050478,0.00010615,0.0005
 9807,-0.00003532,0.00000438,0.00000024,0.00043772,0.02100866,0.0057223
 1,0.02389324,-0.01434923,-0.05347588,-0.00734093,-0.00464039,-0.000002
 49,-0.00348502,0.00938867,0.05134524,0.00040423,-0.00060787,0.00036569
 ,0.00011092,-0.00033958,0.00068092,0.00007247,0.00001107,0.00000338,-0
 .00018526,0.00047361,-0.00013540,0.00454550,-0.00245291,-0.00080934,-0
 .14071339,-0.00329072,-0.15635734,-0.02229108,-0.00044124,-0.01944889,
 0.15023427,0.00931232,0.17037877,-0.00172705,0.00228099,0.00093650,-0.
 00001344,0.00040030,-0.00000785,0.00035744,0.00072470,0.00024720,-0.00
 013571,-0.00008051,-0.00009810,0.01329435,0.01686914,-0.00508317,-0.16
 146046,-0.13661588,0.03373520,-0.00746739,-0.00927958,0.00085785,-0.01
 109097,-0.01577066,0.00729453,0.16715811,0.00433911,-0.00227563,0.0006
 4449,-0.00002395,-0.00004432,-0.00005165,-0.00056431,-0.00103755,-0.00
 034595,0.00009260,0.00054235,0.00001309,-0.01954136,-0.02620775,0.0061
 6122,-0.12947455,-0.21235090,0.04482279,0.00397112,0.00543464,-0.00068
 332,0.00153116,0.00172858,-0.00150053,0.14181220,0.23084659,0.00130382
 ,-0.00045109,0.00284442,-0.00001659,0.00090869,-0.00004229,-0.00023965
 ,-0.00026797,0.00023642,-0.00042369,-0.00005075,-0.00007687,0.00167750
 ,-0.00395134,-0.00264086,0.03169053,0.04680346,-0.05772813,0.01576588,
 0.02212231,-0.00398602,-0.01051328,-0.01728938,0.00583178,-0.03798057,
 -0.04776703,0.05665305,-0.04367700,-0.01159027,-0.01044458,-0.00062127
 ,-0.00171471,0.00427362,0.00248505,0.00214922,0.00216535,0.00117260,-0
 .00513344,-0.00036566,-0.48875905,-0.04818654,-0.01967451,-0.05086021,
 0.01701820,0.00289874,0.00083184,0.00153853,-0.00381681,0.00145185,0.0
 0460731,0.00005861,0.00078763,-0.00194484,-0.00133475,0.68977306,-0.03
 869321,0.00381716,0.00028032,-0.00232286,-0.00143941,0.00018229,-0.000
 44328,0.00363536,-0.00020109,-0.00328303,-0.00487062,-0.00199293,-0.00
 019766,-0.13649516,0.00135933,0.04631155,0.00490409,0.00207751,0.00221
 973,-0.00198311,0.00060650,0.00326459,-0.00535803,-0.00064542,-0.00016
 767,0.00299267,0.00019334,-0.13513555,0.51755381,-0.01031809,0.0011387
 0,0.03277196,0.00507011,0.00465084,-0.00125241,-0.00003074,-0.00182941
 ,-0.00086343,0.00076107,-0.00473063,-0.00048706,-0.02138517,0.00022277
 ,-0.06407747,0.00000772,0.00101431,0.00847486,-0.00089035,0.00025481,-
 0.00081788,-0.00139477,-0.00063664,-0.00018215,0.00012443,-0.00073464,
 -0.00078699,0.03559956,-0.01697680,0.05374190,0.00231385,0.00143750,-0
 .00042042,0.00030509,0.00014008,-0.00009902,-0.00158857,-0.00298574,-0
 .00056786,0.00086561,0.00025788,0.00043605,-0.03495819,0.04724048,-0.0
 0234025,-0.00236472,-0.00413047,-0.00187863,-0.00041097,0.00013350,0.0
 0022438,-0.00069101,0.00093280,0.00046919,0.00029749,-0.00019719,0.000
 07079,-0.11258449,0.12844740,-0.00754378,0.14881591,-0.00514364,0.0028
 3763,-0.00250783,-0.00004479,-0.00037761,0.00038309,-0.00055678,-0.002
 40721,0.00066907,0.00013679,-0.00128919,0.00033363,0.00078923,0.006012
 81,0.00030721,-0.00298813,0.00276054,0.00130290,0.00034911,0.00022468,
 -0.00038649,0.00051539,0.00035949,-0.00051873,-0.00017302,0.00037130,-
 0.00025024,0.17839208,-0.38275676,0.01762668,-0.17127624,0.37426432,0.
 00060141,-0.00048170,-0.00836500,-0.00125097,-0.00124215,0.00014435,-0
 .00036566,0.00004892,0.00009213,0.00032448,0.00094694,0.00018694,-0.00
 091532,0.00215318,-0.00100440,0.00086790,0.00070531,0.01374363,-0.0019
 8661,0.00210050,-0.00081094,0.00046083,-0.00183019,-0.00032741,-0.0000
 2603,-0.00055847,-0.00030450,-0.00935956,0.01511695,-0.02652132,0.0116
 4954,-0.01695929,0.02316652\\-0.00000205,0.00000037,-0.00000684,0.0000
 0299,0.00000362,-0.00000587,-0.00000884,-0.00000193,-0.00000008,-0.000
 00848,0.00000289,-0.00001113,0.00000031,-0.00000027,0.00000349,0.00000
 150,0.00000022,-0.00000622,-0.00000196,0.00000162,-0.00000327,0.000010
 08,0.00000416,-0.00000655,0.00000865,-0.00000045,0.00000546,0.00000021
 ,-0.00000481,0.00001550,-0.00000241,-0.00000542,0.00001551\\\@
 The archive entry for this job was punched.


 Mondays are the potholes in the road of life.
                                -- Tom Wilson
 Job cpu time:       0 days  0 hours 10 minutes 36.1 seconds.
 Elapsed time:       0 days  0 hours  0 minutes 20.4 seconds.
 File lengths (MBytes):  RWF=     41 Int=      0 D2E=      0 Chk=      5 Scr=      1
 Normal termination of Gaussian 16 at Mon Jun 24 20:39:42 2024.
