 Entering Gaussian System, Link 0=g16
 Input=/home/duckter/Documents/KET_DFT_demo/IRC.gjf
 Output=/home/duckter/Documents/KET_DFT_demo/IRC.log
 Initial command:
 /home/duckter/g16/l1.exe "/home/duckter/g16/scratch/Gau-99144.inp" -scrdir="/home/duckter/g16/scratch/"
 Entering Link 1 = /home/duckter/g16/l1.exe PID=     99147.
  
 Copyright (c) 1988-2019, Gaussian, Inc.  All Rights Reserved.
  
 This is part of the Gaussian(R) 16 program.  It is based on
 the Gaussian(R) 09 system (copyright 2009, Gaussian, Inc.),
 the Gaussian(R) 03 system (copyright 2003, Gaussian, Inc.),
 the Gaussian(R) 98 system (copyright 1998, Gaussian, Inc.),
 the Gaussian(R) 94 system (copyright 1995, Gaussian, Inc.),
 the Gaussian 92(TM) system (copyright 1992, Gaussian, Inc.),
 the Gaussian 90(TM) system (copyright 1990, Gaussian, Inc.),
 the Gaussian 88(TM) system (copyright 1988, Gaussian, Inc.),
 the Gaussian 86(TM) system (copyright 1986, Carnegie Mellon
 University), and the Gaussian 82(TM) system (copyright 1983,
 Carnegie Mellon University). Gaussian is a federally registered
 trademark of Gaussian, Inc.
  
 This software contains proprietary and confidential information,
 including trade secrets, belonging to Gaussian, Inc.
  
 This software is provided under written license and may be
 used, copied, transmitted, or stored only in accord with that
 written license.
  
 The following legend is applicable only to US Government
 contracts under FAR:
  
                    RESTRICTED RIGHTS LEGEND
  
 Use, reproduction and disclosure by the US Government is
 subject to restrictions as set forth in subparagraphs (a)
 and (c) of the Commercial Computer Software - Restricted
 Rights clause in FAR 52.227-19.
  
 Gaussian, Inc.
 340 Quinnipiac St., Bldg. 40, Wallingford CT 06492
  
  
 ---------------------------------------------------------------
 Warning -- This program may not be used in any manner that
 competes with the business of Gaussian, Inc. or will provide
 assistance to any competitor of Gaussian, Inc.  The licensee
 of this program is prohibited from giving any competitor of
 Gaussian, Inc. access to this program.  By using this program,
 the user acknowledges that Gaussian, Inc. is engaged in the
 business of creating and licensing software in the field of
 computational chemistry and represents and warrants to the
 licensee that it is not a competitor of Gaussian, Inc. and that
 it will not use this program in any manner prohibited above.
 ---------------------------------------------------------------
  

 Cite this work as:
 Gaussian 16, Revision C.01,
 M. J. Frisch, G. W. Trucks, H. B. Schlegel, G. E. Scuseria, 
 M. A. Robb, J. R. Cheeseman, G. Scalmani, V. Barone, 
 G. A. Petersson, H. Nakatsuji, X. Li, M. Caricato, A. V. Marenich, 
 J. Bloino, B. G. Janesko, R. Gomperts, B. Mennucci, H. P. Hratchian, 
 J. V. Ortiz, A. F. Izmaylov, J. L. Sonnenberg, D. Williams-Young, 
 F. Ding, F. Lipparini, F. Egidi, J. Goings, B. Peng, A. Petrone, 
 T. Henderson, D. Ranasinghe, V. G. Zakrzewski, J. Gao, N. Rega, 
 G. Zheng, W. Liang, M. Hada, M. Ehara, K. Toyota, R. Fukuda, 
 J. Hasegawa, M. Ishida, T. Nakajima, Y. Honda, O. Kitao, H. Nakai, 
 T. Vreven, K. Throssell, J. A. Montgomery, Jr., J. E. Peralta, 
 F. Ogliaro, M. J. Bearpark, J. J. Heyd, E. N. Brothers, K. N. Kudin, 
 V. N. Staroverov, T. A. Keith, R. Kobayashi, J. Normand, 
 K. Raghavachari, A. P. Rendell, J. C. Burant, S. S. Iyengar, 
 J. Tomasi, M. Cossi, J. M. Millam, M. Klene, C. Adamo, R. Cammi, 
 J. W. Ochterski, R. L. Martin, K. Morokuma, O. Farkas, 
 J. B. Foresman, and D. J. Fox, Gaussian, Inc., Wallingford CT, 2019.
 
 ******************************************
 Gaussian 16:  ES64L-G16RevC.01  3-Jul-2019
                27-Jun-2024 
 ******************************************
 %nprocshared=32
 Will use up to   32 processors via shared memory.
 %chk=IRC.chk
 --------------------------------------------------------------
 # irc=(calcfc,maxpoints=20) b3lyp/6-31+g(d) scrf iop(3/124=40)
 --------------------------------------------------------------
 1/10=4,18=10,26=3,38=1,42=20,44=3,172=1/1,23;
 2/12=2,17=6,18=5,29=1,40=1/2;
 3/5=1,6=6,7=11,11=2,25=1,30=1,70=2201,71=2,74=-5,124=40,140=1/1,2,3;
 4//1;
 5/5=2,38=5/2;
 8/6=4,10=90,11=11/1;
 11/6=1,8=1,9=11,15=111,16=1/1,2,10;
 10/6=1,13=1/2;
 6/7=2,8=2,9=2,10=2,28=1/1;
 7/10=1,25=1/1,2,3,16;
 1/10=4,18=10,26=3,42=20,44=3/23(2);
 2/29=1/2;
 99/5=20/99;
 2/29=1/2;
 3/5=1,6=6,7=11,11=2,25=1,30=1,70=2205,71=2,74=-5,124=40,140=1/1,2,3;
 4/5=5,16=3,69=1/1;
 5/5=2,38=5/2;
 8/6=4,10=90,11=11/1;
 11/6=1,8=1,9=11,15=111,16=1/1,2,10;
 10/6=1,13=1/2;
 7/10=1,25=1/1,2,3,16;
 1/18=10,26=3,42=20,44=3/23(-8);
 2/29=1/2;
 6/7=2,8=2,9=2,10=2,19=2,28=1/1;
 99/5=20,9=1/99;
 ------
 nbvmvb
 ------
 Symbolic Z-matrix:
 Charge =  1 Multiplicity = 1
 C                     1.5861    1.28803   0.01765 
 H                     2.05371   1.38584   1.00744 
 H                     0.93261   2.1449   -0.16628 
 H                     2.40079   1.26079  -0.71682 
 C                     0.80912  -0.00021  -0.02293 
 C                     1.59108  -1.28533   0.02291 
 H                     2.16026  -1.38495  -0.91191 
 H                     2.32424  -1.25194   0.83851 
 H                     0.92516  -2.14426   0.14072 
 O                    -0.4212   -0.00262  -0.09254 
 O                    -2.89731   0.00059   0.1264 
 H                    -2.28694   0.77207  -0.01085 
 H                    -2.28329  -0.77145   0.00844 
 H                    -3.59616  -0.00968  -0.56586 
 
 IRC-IRC-IRC-IRC-IRC-IRC-IRC-IRC-IRC-IRC-IRC-IRC-IRC-IRC-IRC-IRC-IRC-IRC
 ------------------------------------------------------------------------
 INPUT DATA FOR L123
 ------------------------------------------------------------------------
 GENERAL PARAMETERS:
 Follow reaction path in both directions.
 Maximum points per path      =  20
 Step size                    =   0.100 bohr
 Integration scheme           = HPC                                 
    Redo corrector integration= Yes                                 
    DWI Weight Power          =  2
    DWI will use Hessian update vectors when possible.
    Max correction cycles     =  20
 Initial Hessian              = CalcFC
 Hessian evaluation           = All updating
 Hessian updating method      = Bofill                              
 ------------------------------------------------------------------------
 IRC-IRC-IRC-IRC-IRC-IRC-IRC-IRC-IRC-IRC-IRC-IRC-IRC-IRC-IRC-IRC-IRC-IRC
                          Input orientation:                          
 ---------------------------------------------------------------------
 Center     Atomic      Atomic             Coordinates (Angstroms)
 Number     Number       Type             X           Y           Z
 ---------------------------------------------------------------------
      1          6           0        1.586099    1.288034    0.017645
      2          1           0        2.053706    1.385838    1.007435
      3          1           0        0.932611    2.144900   -0.166277
      4          1           0        2.400793    1.260788   -0.716815
      5          6           0        0.809116   -0.000209   -0.022933
      6          6           0        1.591076   -1.285331    0.022913
      7          1           0        2.160260   -1.384949   -0.911909
      8          1           0        2.324242   -1.251937    0.838509
      9          1           0        0.925156   -2.144265    0.140720
     10          8           0       -0.421203   -0.002624   -0.092540
     11          8           0       -2.897313    0.000589    0.126397
     12          1           0       -2.286936    0.772072   -0.010852
     13          1           0       -2.283290   -0.771454    0.008441
     14          1           0       -3.596160   -0.009680   -0.565855
 ---------------------------------------------------------------------
                    Distance matrix (angstroms):
                    1          2          3          4          5
     1  C    0.000000
     2  H    1.099048   0.000000
     3  H    1.093203   1.791823   0.000000
     4  H    1.097224   1.763277   1.800085   0.000000
     5  C    1.504965   2.128800   2.153437   2.145931   0.000000
     6  C    2.573375   2.884173   3.497979   2.772284   1.505026
     7  H    2.887658   3.372313   3.810895   2.663802   2.129172
     8  H    2.769499   2.656988   3.805881   2.956126   2.145813
     9  H    3.497523   3.806107   4.300144   3.808839   2.153421
    10  O    2.388975   3.043509   2.539706   3.154297   1.232289
    11  O    4.665868   5.216103   4.399096   5.510811   3.709436
    12  H    3.907356   4.500532   3.503469   4.765714   3.190941
    13  H    4.383349   4.945850   4.344844   5.157193   3.187284
    14  H    5.374043   6.028573   5.031068   6.131910   4.438616
                    6          7          8          9         10
     6  C    0.000000
     7  H    1.098993   0.000000
     8  H    1.097198   1.763107   0.000000
     9  H    1.093204   1.791667   1.800167   0.000000
    10  O    2.389128   3.040746   3.156755   2.540417   0.000000
    11  O    4.670111   5.345731   5.416693   4.383135   2.485772
    12  H    4.390105   5.024161   5.106955   4.341144   2.021828
    13  H    3.908323   4.579144   4.706297   3.492311   2.017093
    14  H    5.374137   5.928532   6.210201   5.049554   3.210051
                   11         12         13         14
    11  O    0.000000
    12  H    0.993269   0.000000
    13  H    0.993473   1.543651   0.000000
    14  H    0.983720   1.622724   1.622881   0.000000
 Symmetry turned off by external request.
 Stoichiometry    C3H9O2(1+)
 Framework group  C1[X(C3H9O2)]
 Deg. of freedom    36
 Full point group                 C1      NOp   1
 Rotational constants (GHZ):           8.2715633           1.9833434           1.6396540
 Standard basis: 6-31+G(d) (6D, 7F)
   113 basis functions,   196 primitive gaussians,   113 cartesian basis functions
    21 alpha electrons       21 beta electrons
       nuclear repulsion energy       183.8696750792 Hartrees.
 NAtoms=   14 NActive=   14 NUniq=   14 SFac= 1.00D+00 NAtFMM=   60 NAOKFM=F Big=F
 Integral buffers will be    131072 words long.
 Raffenetti 2 integral format.
 Two-electron integral symmetry is turned off.
 Nuclear repulsion after empirical dispersion term =      183.8566657070 Hartrees.
 Force inversion solution in PCM.
 ------------------------------------------------------------------------------
 Polarizable Continuum Model (PCM)
 =================================
 Model                : PCM.
 Atomic radii         : UFF (Universal Force Field).
 Polarization charges : Total charges.
 Charge compensation  : None.
 Solution method      : Matrix inversion.
 Cavity type          : Scaled VdW (van der Waals Surface) (Alpha=1.100).
 Cavity algorithm     : GePol (No added spheres)
                        Default sphere list used, NSphG=   14.
                        Lebedev-Laikov grids with approx.  5.0 points / Ang**2.
                        Smoothing algorithm: York/Karplus (Gamma=1.0000).
                        Polarization charges: spherical gaussians, with
                                              point-specific exponents (IZeta= 3).
                        Self-potential: point-specific (ISelfS= 7).
                        Self-field    : sphere-specific E.n sum rule (ISelfD= 2).
 1st derivatives      : Analytical E(r).r(x)/FMM algorithm (CHGder, D1EAlg=3).
                        Cavity 1st derivative terms included.
 2nd derivatives      : Analytical E(r).r(xy)/FMM algorithm (CHGder, D2EAlg=3).
                        Cavity 2nd derivative terms included.
 Solvent              : Water, Eps=  78.355300 Eps(inf)=   1.777849
 ------------------------------------------------------------------------------
 Spheres list:
 ISph  on   Nord     Re0    Alpha      Xe            Ye            Ze
    1   C      1    1.9255  1.100      1.586099      1.288034      0.017645
    2   H      2    1.4430  1.100      2.053706      1.385838      1.007435
    3   H      3    1.4430  1.100      0.932611      2.144900     -0.166277
    4   H      4    1.4430  1.100      2.400793      1.260788     -0.716815
    5   C      5    1.9255  1.100      0.809116     -0.000209     -0.022933
    6   C      6    1.9255  1.100      1.591076     -1.285331      0.022913
    7   H      7    1.4430  1.100      2.160260     -1.384949     -0.911909
    8   H      8    1.4430  1.100      2.324242     -1.251937      0.838509
    9   H      9    1.4430  1.100      0.925156     -2.144265      0.140720
   10   O     10    1.7500  1.100     -0.421203     -0.002624     -0.092540
   11   O     11    1.7500  1.100     -2.897313      0.000589      0.126397
   12   H     12    1.4430  1.100     -2.286936      0.772072     -0.010852
   13   H     13    1.4430  1.100     -2.283290     -0.771454      0.008441
   14   H     14    1.4430  1.100     -3.596160     -0.009680     -0.565855
 ------------------------------------------------------------------------------
 One-electron integrals computed using PRISM.
 PrsmSu:  requested number of processors reduced to:  30 ShMem   1 Linda.
 NBasis=   113 RedAO= T EigKep=  1.36D-04  NBF=   113
 NBsUse=   113 1.00D-06 EigRej= -1.00D+00 NBFU=   113
 ExpMin= 4.38D-02 ExpMax= 5.48D+03 ExpMxC= 8.25D+02 IAcc=3 IRadAn=         5 AccDes= 0.00D+00
 Harris functional with IExCor=  402 and IRadAn=       5 diagonalized for initial guess.
 HarFok:  IExCor=  402 AccDes= 0.00D+00 IRadAn=         5 IDoV= 1 UseB2=F ITyADJ=14
 ICtDFT=  3500011 ScaDFX=  1.000000  1.000000  1.000000  1.000000
 FoFCou: FMM=F IPFlag=           0 FMFlag=      100000 FMFlg1=           0
         NFxFlg=           0 DoJE=T BraDBF=F KetDBF=T FulRan=T
         wScrn=  0.000000 ICntrl=       500 IOpCl=  0 I1Cent=   200000004 NGrid=           0
         NMat0=    1 NMatS0=      1 NMatT0=    0 NMatD0=    1 NMtDS0=    0 NMtDT0=    0
 Symmetry not used in FoFCou.
 Requested convergence on RMS density matrix=1.00D-08 within 128 cycles.
 Requested convergence on MAX density matrix=1.00D-06.
 Requested convergence on             energy=1.00D-06.
 No special actions if energy rises.
 Inv3:  Mode=1 IEnd=     4348848.
 Iteration    1 A*A^-1 deviation from unit magnitude is 3.77D-15 for   1195.
 Iteration    1 A*A^-1 deviation from orthogonality  is 2.29D-15 for   1138    621.
 Iteration    1 A^-1*A deviation from unit magnitude is 3.55D-15 for   1195.
 Iteration    1 A^-1*A deviation from orthogonality  is 1.25D-15 for   1173    315.
 Error on total polarization charges =  0.00782
 SCF Done:  E(RB3LYP) =  -270.014495764     A.U. after   11 cycles
            NFock= 11  Conv=0.37D-08     -V/T= 2.0101
 DoSCS=F DFT=T ScalE2(SS,OS)=  1.000000  1.000000
 Range of M.O.s used for correlation:     1   113
 NBasis=   113 NAE=    21 NBE=    21 NFC=     0 NFV=     0
 NROrb=    113 NOA=    21 NOB=    21 NVA=    92 NVB=    92

 **** Warning!!: The largest alpha MO coefficient is  0.34429280D+02

 PrsmSu:  requested number of processors reduced to:  30 ShMem   1 Linda.
 Symmetrizing basis deriv contribution to polar:
 IMax=3 JMax=2 DiffMx= 0.00D+00
 G2DrvN: will do    15 centers at a time, making    1 passes.
 Calling FoFCou, ICntrl=  3107 FMM=F I1Cent=   0 AccDes= 0.00D+00.
 NEqPCM:  Using equilibrium solvation (IEInf=0, Eps=  78.3553, EpsInf=   1.7778)
 G2PCM: DoFxE=T DoFxN=T DoGrad=T DoDP/DQ/DG/TGxP=FFFF NFrqRd=   0 IEInf=0 SqF1=F DoCFld=F IF1Alg=4.
 CoulSu:  requested number of processors reduced to:  31 ShMem   1 Linda.
 CoulSu:  requested number of processors reduced to:  30 ShMem   1 Linda.
 CoulSu:  requested number of processors reduced to:  31 ShMem   1 Linda.
 CoulSu:  requested number of processors reduced to:  24 ShMem   1 Linda.
 CoulSu:  requested number of processors reduced to:  29 ShMem   1 Linda.
 CoulSu:  requested number of processors reduced to:  30 ShMem   1 Linda.
 CoulSu:  requested number of processors reduced to:  29 ShMem   1 Linda.
 CoulSu:  requested number of processors reduced to:  30 ShMem   1 Linda.
 End of G2Drv F.D. properties file   721 does not exist.
 End of G2Drv F.D. properties file   722 does not exist.
 End of G2Drv F.D. properties file   788 does not exist.
          IDoAtm=11111111111111
 NEqPCM:  Using equilibrium solvation (IEInf=0, Eps=  78.3553, EpsInf=   1.7778)
          Differentiating once with respect to nuclear coordinates.
 Keep R1 ints in memory in canonical form, NReq=50700862.
 CoulSu:  requested number of processors reduced to:  28 ShMem   1 Linda.
 CoulSu:  requested number of processors reduced to:  26 ShMem   1 Linda.
          There are    45 degrees of freedom in the 1st order CPHF.  IDoFFX=6 NUNeed=     0.
     39 vectors produced by pass  0 Test12= 4.29D-15 2.22D-09 XBig12= 1.23D-01 1.13D-01.
 AX will form    39 AO Fock derivatives at one time.
 CoulSu:  requested number of processors reduced to:  31 ShMem   1 Linda.
 CoulSu:  requested number of processors reduced to:  29 ShMem   1 Linda.
     39 vectors produced by pass  1 Test12= 4.29D-15 2.22D-09 XBig12= 7.04D-03 3.13D-02.
 CoulSu:  requested number of processors reduced to:  31 ShMem   1 Linda.
 CoulSu:  requested number of processors reduced to:  29 ShMem   1 Linda.
     39 vectors produced by pass  2 Test12= 4.29D-15 2.22D-09 XBig12= 4.71D-05 1.65D-03.
 CoulSu:  requested number of processors reduced to:  31 ShMem   1 Linda.
 CoulSu:  requested number of processors reduced to:  29 ShMem   1 Linda.
     39 vectors produced by pass  3 Test12= 4.29D-15 2.22D-09 XBig12= 1.03D-07 5.66D-05.
 CoulSu:  requested number of processors reduced to:  31 ShMem   1 Linda.
 CoulSu:  requested number of processors reduced to:  29 ShMem   1 Linda.
     39 vectors produced by pass  4 Test12= 4.29D-15 2.22D-09 XBig12= 9.68D-11 2.39D-06.
 CoulSu:  requested number of processors reduced to:  31 ShMem   1 Linda.
 CoulSu:  requested number of processors reduced to:  29 ShMem   1 Linda.
     17 vectors produced by pass  5 Test12= 4.29D-15 2.22D-09 XBig12= 6.54D-14 5.12D-08.
      1 vectors produced by pass  6 Test12= 4.29D-15 2.22D-09 XBig12= 7.03D-17 2.27D-09.
 InvSVY:  IOpt=1 It=  1 EMax= 1.33D-15
 Solved reduced A of dimension   213 with    39 vectors.
 End of Minotr F.D. properties file   721 does not exist.
 End of Minotr F.D. properties file   722 does not exist.
 End of Minotr F.D. properties file   788 does not exist.

 **********************************************************************

            Population analysis using the SCF Density.

 **********************************************************************

 Alpha  occ. eigenvalues --  -19.33677 -19.18517 -10.31543 -10.20228 -10.20227
 Alpha  occ. eigenvalues --   -1.20276  -1.07610  -0.79005  -0.72430  -0.69257
 Alpha  occ. eigenvalues --   -0.66497  -0.56060  -0.50813  -0.47998  -0.47920
 Alpha  occ. eigenvalues --   -0.47620  -0.41633  -0.41134  -0.39407  -0.37935
 Alpha  occ. eigenvalues --   -0.29198
 Alpha virt. eigenvalues --   -0.05114  -0.02668   0.01431   0.02935   0.04918
 Alpha virt. eigenvalues --    0.05123   0.05383   0.06229   0.08248   0.08356
 Alpha virt. eigenvalues --    0.08902   0.09636   0.10427   0.12865   0.14101
 Alpha virt. eigenvalues --    0.14152   0.15314   0.17744   0.19308   0.19558
 Alpha virt. eigenvalues --    0.20069   0.21607   0.23244   0.23992   0.24282
 Alpha virt. eigenvalues --    0.27599   0.29685   0.30064   0.33880   0.35278
 Alpha virt. eigenvalues --    0.36063   0.38852   0.44899   0.59277   0.64074
 Alpha virt. eigenvalues --    0.65463   0.65941   0.66861   0.70516   0.75813
 Alpha virt. eigenvalues --    0.78907   0.81253   0.87624   0.92086   0.93314
 Alpha virt. eigenvalues --    0.95105   0.96169   1.00118   1.00744   1.01547
 Alpha virt. eigenvalues --    1.06992   1.07389   1.10306   1.11250   1.16024
 Alpha virt. eigenvalues --    1.20639   1.23095   1.23708   1.31018   1.38329
 Alpha virt. eigenvalues --    1.40404   1.41888   1.44567   1.53837   1.59049
 Alpha virt. eigenvalues --    1.70256   1.75218   1.76644   1.78265   1.79130
 Alpha virt. eigenvalues --    1.92217   1.92342   1.94265   2.08567   2.12458
 Alpha virt. eigenvalues --    2.15705   2.20308   2.22575   2.37680   2.39976
 Alpha virt. eigenvalues --    2.44371   2.49450   2.50716   2.56544   2.69274
 Alpha virt. eigenvalues --    2.95583   3.06708   3.70091   4.19475   4.25350
 Alpha virt. eigenvalues --    4.29503   4.51698
          Condensed to atoms (all electrons):
               1          2          3          4          5          6
     1  C    6.097113   0.363676   0.376915   0.367697   0.072945  -0.419748
     2  H    0.363676   0.453732  -0.019932  -0.024230  -0.031061  -0.000477
     3  H    0.376915  -0.019932   0.460573  -0.021307  -0.042184   0.012705
     4  H    0.367697  -0.024230  -0.021307   0.462960  -0.047759   0.013324
     5  C    0.072945  -0.031061  -0.042184  -0.047759   4.952082   0.077956
     6  C   -0.419748  -0.000477   0.012705   0.013324   0.077956   6.094770
     7  H   -0.003076   0.000146  -0.000068   0.000294  -0.023282   0.359955
     8  H    0.016731   0.000274   0.000064  -0.000573  -0.056943   0.371993
     9  H    0.012547  -0.000070  -0.000120   0.000066  -0.041975   0.376899
    10  O   -0.129786   0.003375  -0.003189   0.004767   0.510045  -0.131712
    11  O    0.012903   0.000075  -0.000363   0.000022  -0.030457   0.013164
    12  H   -0.011816   0.000010   0.000193   0.000004   0.005896   0.006529
    13  H    0.006761  -0.000006  -0.000003  -0.000004   0.006096  -0.012228
    14  H   -0.000591  -0.000000   0.000002  -0.000000   0.000788  -0.000635
               7          8          9         10         11         12
     1  C   -0.003076   0.016731   0.012547  -0.129786   0.012903  -0.011816
     2  H    0.000146   0.000274  -0.000070   0.003375   0.000075   0.000010
     3  H   -0.000068   0.000064  -0.000120  -0.003189  -0.000363   0.000193
     4  H    0.000294  -0.000573   0.000066   0.004767   0.000022   0.000004
     5  C   -0.023282  -0.056943  -0.041975   0.510045  -0.030457   0.005896
     6  C    0.359955   0.371993   0.376899  -0.131712   0.013164   0.006529
     7  H    0.453753  -0.024241  -0.019816   0.001625   0.000027  -0.000005
     8  H   -0.024241   0.462950  -0.021433   0.006605   0.000055  -0.000005
     9  H   -0.019816  -0.021433   0.460544  -0.003206  -0.000354  -0.000003
    10  O    0.001625   0.006605  -0.003206   8.331690  -0.072292   0.033388
    11  O    0.000027   0.000055  -0.000354  -0.072292   8.286998   0.195137
    12  H   -0.000005  -0.000005  -0.000003   0.033388   0.195137   0.193467
    13  H    0.000007   0.000006   0.000201   0.033800   0.194245  -0.012822
    14  H   -0.000000  -0.000000   0.000002   0.002294   0.211515  -0.007545
              13         14
     1  C    0.006761  -0.000591
     2  H   -0.000006  -0.000000
     3  H   -0.000003   0.000002
     4  H   -0.000004  -0.000000
     5  C    0.006096   0.000788
     6  C   -0.012228  -0.000635
     7  H    0.000007  -0.000000
     8  H    0.000006  -0.000000
     9  H    0.000201   0.000002
    10  O    0.033800   0.002294
    11  O    0.194245   0.211515
    12  H   -0.012822  -0.007545
    13  H    0.193582  -0.007474
    14  H   -0.007474   0.193917
 Mulliken charges:
               1
     1  C   -0.762272
     2  H    0.254489
     3  H    0.236714
     4  H    0.244738
     5  C    0.647852
     6  C   -0.762496
     7  H    0.254679
     8  H    0.244517
     9  H    0.236717
    10  O   -0.587404
    11  O   -0.810673
    12  H    0.597572
    13  H    0.597838
    14  H    0.607728
 Sum of Mulliken charges =   1.00000
 Mulliken charges with hydrogens summed into heavy atoms:
               1
     1  C   -0.026331
     5  C    0.647852
     6  C   -0.026582
    10  O   -0.587404
    11  O    0.992465
 APT charges:
               1
     1  C   -1.416857
     2  H    0.523283
     3  H    0.394089
     4  H    0.561233
     5  C    0.494165
     6  C   -1.420290
     7  H    0.538909
     8  H    0.549092
     9  H    0.391909
    10  O   -0.588219
    11  O   -0.866470
    12  H    0.404048
    13  H    0.403503
    14  H    1.031605
 Sum of APT charges =   1.00000
 APT charges with hydrogens summed into heavy atoms:
               1
     1  C    0.061749
     5  C    0.494165
     6  C    0.059620
    10  O   -0.588219
    11  O    0.972686
 Electronic spatial extent (au):  <R**2>=            709.7294
 Charge=              1.0000 electrons
 Dipole moment (field-independent basis, Debye):
    X=             -7.1406    Y=             -0.0143    Z=             -1.4381  Tot=              7.2840
 Quadrupole moment (field-independent basis, Debye-Ang):
   XX=              7.9718   YY=            -25.8466   ZZ=            -29.7667
   XY=              0.0705   XZ=              5.9855   YZ=              0.0986
 Traceless Quadrupole moment (field-independent basis, Debye-Ang):
   XX=             23.8523   YY=             -9.9661   ZZ=            -13.8862
   XY=              0.0705   XZ=              5.9855   YZ=              0.0986
 Octapole moment (field-independent basis, Debye-Ang**2):
  XXX=           -118.7683  YYY=             -0.0075  ZZZ=             -0.9581  XYY=            -11.1467
  XXY=             -0.3553  XXZ=            -22.4347  XZZ=             -5.7360  YZZ=              0.0235
  YYZ=             -0.2015  XYZ=              0.5427
 Hexadecapole moment (field-independent basis, Debye-Ang**3):
 XXXX=           -232.3659 YYYY=           -195.7888 ZZZZ=            -42.7621 XXXY=              1.0709
 XXXZ=             81.1610 YYYX=              0.0571 YYYZ=             -0.7644 ZZZX=              5.0204
 ZZZY=              1.3332 XXYY=           -116.5004 XXZZ=            -94.7172 YYZZ=            -41.1720
 XXYZ=              0.5469 YYXZ=              0.7034 ZZXY=             -0.0110
 N-N= 1.838566657070D+02 E-N=-9.896981714912D+02  KE= 2.673257468741D+02
  Exact polarizability:       0.000       0.000       0.000       0.000       0.000       0.000
 Approx polarizability:      75.529       0.030      54.697       1.977       0.397      47.036
 PrsmSu:  requested number of processors reduced to:  30 ShMem   1 Linda.
 PrsmSu:  requested number of processors reduced to:  31 ShMem   1 Linda.
 D2PCM: PCM CHGder 2nd derivatives, FixD1E=F FixD2E=F DoIter=F DoCFld=F I1PDM=0
 CoulSu:  requested number of processors reduced to:  30 ShMem   1 Linda.
 CoulSu:  requested number of processors reduced to:  30 ShMem   1 Linda.
 CoulSu:  requested number of processors reduced to:  29 ShMem   1 Linda.
 CoulSu:  requested number of processors reduced to:  30 ShMem   1 Linda.
 CoulSu:  requested number of processors reduced to:  29 ShMem   1 Linda.
 CoulSu:  requested number of processors reduced to:  29 ShMem   1 Linda.
 CoulSu:  requested number of processors reduced to:  30 ShMem   1 Linda.
 CoulSu:  requested number of processors reduced to:  30 ShMem   1 Linda.
 CoulSu:  requested number of processors reduced to:  30 ShMem   1 Linda.
 CoulSu:  requested number of processors reduced to:  30 ShMem   1 Linda.
 CoulSu:  requested number of processors reduced to:  29 ShMem   1 Linda.
 CoulSu:  requested number of processors reduced to:  30 ShMem   1 Linda.
 CoulSu:  requested number of processors reduced to:  30 ShMem   1 Linda.
 CoulSu:  requested number of processors reduced to:  29 ShMem   1 Linda.
 CoulSu:  requested number of processors reduced to:  30 ShMem   1 Linda.
 CoulSu:  requested number of processors reduced to:  30 ShMem   1 Linda.
 Calling FoFJK, ICntrl=    100127 FMM=F ISym2X=0 I1Cent= 0 IOpClX= 0 NMat=1 NMatS=1 NMatT=0.
 CoulSu:  requested number of processors reduced to:  31 ShMem   1 Linda.
 -------------------------------------------------------------------
 Center     Atomic                   Forces (Hartrees/Bohr)
 Number     Number              X              Y              Z
 -------------------------------------------------------------------
      1        6          -0.000399185   -0.000197892   -0.000039836
      2        1          -0.000348343    0.000356046   -0.000859704
      3        1           0.000794184   -0.000759448    0.000194751
      4        1          -0.000672602    0.000477422    0.000645269
      5        6           0.001234506    0.000005833    0.000042952
      6        6          -0.000389433    0.000209056   -0.000034268
      7        1          -0.000444613   -0.000339797    0.000792273
      8        1          -0.000607169   -0.000510227   -0.000723008
      9        1           0.000805023    0.000752808   -0.000119910
     10        8          -0.000773599    0.000003590    0.000082644
     11        8           0.000431649    0.000007890   -0.000015480
     12        1           0.000038864   -0.000333964   -0.000064380
     13        1           0.000025719    0.000329769   -0.000068473
     14        1           0.000304999   -0.000001088    0.000167170
 -------------------------------------------------------------------
 Cartesian Forces:  Max     0.001234506 RMS     0.000481014
 IRC-IRC-IRC-IRC-IRC-IRC-IRC-IRC-IRC-IRC-IRC-IRC-IRC-IRC-IRC-IRC-IRC-IRC
          ******** Start new reaction path calculation ********
 Supplied step size of   0.1000 bohr.
    Integration on MW PES will use step size of   0.1008 sqrt(amu)*bohr.
 Point Number:   0          Path Number:   1
 Calculating another point on the path.
 IRC-IRC-IRC-IRC-IRC-IRC-IRC-IRC-IRC-IRC-IRC-IRC-IRC-IRC-IRC-IRC-IRC-IRC
                          Input orientation:                          
 ---------------------------------------------------------------------
 Center     Atomic      Atomic             Coordinates (Angstroms)
 Number     Number       Type             X           Y           Z
 ---------------------------------------------------------------------
      1          6           0        1.619602    1.287606    0.012544
      2          1           0        2.087175    1.385752    1.002314
      3          1           0        0.965950    2.144293   -0.171607
      4          1           0        2.434293    1.260326   -0.721920
      5          6           0        0.842766   -0.000940   -0.027768
      6          6           0        1.624863   -1.285759    0.018363
      7          1           0        2.194113   -1.385464   -0.916410
      8          1           0        2.358006   -1.252056    0.833967
      9          1           0        0.959105   -2.144802    0.136326
     10          8           0       -0.387553   -0.002392   -0.097426
     11          8           0       -2.863638   -0.000157    0.121583
     12          1           0       -2.280829    0.793314   -0.005023
     13          1           0       -2.222226   -0.750359   -0.008239
     14          1           0       -3.562802   -0.021361   -0.570181
 ---------------------------------------------------------------------
                    Distance matrix (angstroms):
                    1          2          3          4          5
     1  C    0.000000
     2  H    1.099046   0.000000
     3  H    1.093199   1.791820   0.000000
     4  H    1.097225   1.763294   1.800076   0.000000
     5  C    1.505141   2.128975   2.153575   2.146065   0.000000
     6  C    2.573377   2.884244   3.497930   2.772318   1.504847
     7  H    2.887615   3.372326   3.810814   2.663779   2.129021
     8  H    2.769451   2.657014   3.805809   2.956123   2.145653
     9  H    3.497571   3.806217   4.300140   3.808892   2.153278
    10  O    2.388485   3.043132   2.538844   3.153928   1.232291
    11  O    4.665797   5.216031   4.398905   5.510752   3.709412
    12  H    3.931666   4.521634   3.520578   4.792121   3.223074
    13  H    4.348951   4.914786   4.309311   5.122047   3.155343
    14  H    5.376828   6.031165   5.035724   6.134402   4.438880
                    6          7          8          9         10
     6  C    0.000000
     7  H    1.098994   0.000000
     8  H    1.097198   1.763088   0.000000
     9  H    1.093208   1.791673   1.800173   0.000000
    10  O    2.389615   3.041155   3.157095   2.541269   0.000000
    11  O    4.670125   5.345779   5.416670   4.383273   2.485753
    12  H    4.424650   5.059922   5.138700   4.376034   2.055768
    13  H    3.884257   4.553261   4.683966   3.476526   1.983288
    14  H    5.371867   5.926442   6.208237   5.045373   3.210306
                   11         12         13         14
    11  O    0.000000
    12  H    0.992618   0.000000
    13  H    0.995523   1.544788   0.000000
    14  H    0.983777   1.620664   1.626149   0.000000
 Symmetry turned off by external request.
 Stoichiometry    C3H9O2(1+)
 Framework group  C1[X(C3H9O2)]
 Deg. of freedom    36
 Full point group                 C1      NOp   1
 Rotational constants (GHZ):           8.2714322           1.9833335           1.6396372
 Standard basis: 6-31+G(d) (6D, 7F)
   113 basis functions,   196 primitive gaussians,   113 cartesian basis functions
    21 alpha electrons       21 beta electrons
       nuclear repulsion energy       183.8644511070 Hartrees.
 NAtoms=   14 NActive=   14 NUniq=   14 SFac= 1.00D+00 NAtFMM=   60 NAOKFM=F Big=F
 Integral buffers will be    131072 words long.
 Raffenetti 2 integral format.
 Two-electron integral symmetry is turned off.
 Nuclear repulsion after empirical dispersion term =      183.8514417483 Hartrees.
 Force inversion solution in PCM.
 ------------------------------------------------------------------------------
 Polarizable Continuum Model (PCM)
 =================================
 Model                : PCM.
 Atomic radii         : UFF (Universal Force Field).
 Polarization charges : Total charges.
 Charge compensation  : None.
 Solution method      : Matrix inversion.
 Cavity type          : Scaled VdW (van der Waals Surface) (Alpha=1.100).
 Cavity algorithm     : GePol (No added spheres)
                        Default sphere list used, NSphG=   14.
                        Lebedev-Laikov grids with approx.  5.0 points / Ang**2.
                        Smoothing algorithm: York/Karplus (Gamma=1.0000).
                        Polarization charges: spherical gaussians, with
                                              point-specific exponents (IZeta= 3).
                        Self-potential: point-specific (ISelfS= 7).
                        Self-field    : sphere-specific E.n sum rule (ISelfD= 2).
 1st derivatives      : Analytical E(r).r(x)/FMM algorithm (CHGder, D1EAlg=3).
                        Cavity 1st derivative terms included.
 Solvent              : Water, Eps=  78.355300 Eps(inf)=   1.777849
 ------------------------------------------------------------------------------
 Spheres list:
 ISph  on   Nord     Re0    Alpha      Xe            Ye            Ze
    1   C      1    1.9255  1.100      1.619602      1.287606      0.012544
    2   H      2    1.4430  1.100      2.087175      1.385752      1.002314
    3   H      3    1.4430  1.100      0.965950      2.144293     -0.171607
    4   H      4    1.4430  1.100      2.434293      1.260326     -0.721920
    5   C      5    1.9255  1.100      0.842766     -0.000940     -0.027768
    6   C      6    1.9255  1.100      1.624863     -1.285759      0.018363
    7   H      7    1.4430  1.100      2.194113     -1.385464     -0.916410
    8   H      8    1.4430  1.100      2.358006     -1.252056      0.833967
    9   H      9    1.4430  1.100      0.959105     -2.144802      0.136326
   10   O     10    1.7500  1.100     -0.387553     -0.002392     -0.097426
   11   O     11    1.7500  1.100     -2.863638     -0.000157      0.121583
   12   H     12    1.4430  1.100     -2.280829      0.793314     -0.005023
   13   H     13    1.4430  1.100     -2.222226     -0.750359     -0.008239
   14   H     14    1.4430  1.100     -3.562802     -0.021361     -0.570181
 ------------------------------------------------------------------------------
 One-electron integrals computed using PRISM.
 PrsmSu:  requested number of processors reduced to:  30 ShMem   1 Linda.
 NBasis=   113 RedAO= T EigKep=  1.36D-04  NBF=   113
 NBsUse=   113 1.00D-06 EigRej= -1.00D+00 NBFU=   113
 Initial guess from the checkpoint file:  "IRC.chk"
 B after Tr=     0.063576    0.000646   -0.009171
         Rot=    1.000000   -0.000040    0.000001    0.000019 Ang=  -0.01 deg.
 ExpMin= 4.38D-02 ExpMax= 5.48D+03 ExpMxC= 8.25D+02 IAcc=3 IRadAn=         5 AccDes= 0.00D+00
 Harris functional with IExCor=  402 and IRadAn=       5 diagonalized for initial guess.
 HarFok:  IExCor=  402 AccDes= 0.00D+00 IRadAn=         5 IDoV= 1 UseB2=F ITyADJ=14
 ICtDFT=  3500011 ScaDFX=  1.000000  1.000000  1.000000  1.000000
 FoFCou: FMM=F IPFlag=           0 FMFlag=      100000 FMFlg1=           0
         NFxFlg=           0 DoJE=T BraDBF=F KetDBF=T FulRan=T
         wScrn=  0.000000 ICntrl=       500 IOpCl=  0 I1Cent=   200000004 NGrid=           0
         NMat0=    1 NMatS0=      1 NMatT0=    0 NMatD0=    1 NMtDS0=    0 NMtDT0=    0
 Symmetry not used in FoFCou.
 Requested convergence on RMS density matrix=1.00D-08 within 128 cycles.
 Requested convergence on MAX density matrix=1.00D-06.
 Requested convergence on             energy=1.00D-06.
 No special actions if energy rises.
 Inv3:  Mode=1 IEnd=     4377792.
 Iteration    1 A*A^-1 deviation from unit magnitude is 3.44D-15 for   1193.
 Iteration    1 A*A^-1 deviation from orthogonality  is 1.43D-15 for   1102    968.
 Iteration    1 A^-1*A deviation from unit magnitude is 3.44D-15 for   1193.
 Iteration    1 A^-1*A deviation from orthogonality  is 1.57D-15 for   1002    222.
 Error on total polarization charges =  0.00782
 SCF Done:  E(RB3LYP) =  -270.014526396     A.U. after    9 cycles
            NFock=  9  Conv=0.34D-08     -V/T= 2.0101
 DoSCS=F DFT=T ScalE2(SS,OS)=  1.000000  1.000000
 Range of M.O.s used for correlation:     1   113
 NBasis=   113 NAE=    21 NBE=    21 NFC=     0 NFV=     0
 NROrb=    113 NOA=    21 NOB=    21 NVA=    92 NVB=    92

 **** Warning!!: The largest alpha MO coefficient is  0.34427454D+02

 Symmetrizing basis deriv contribution to polar:
 IMax=3 JMax=2 DiffMx= 0.00D+00
 PrsmSu:  requested number of processors reduced to:  30 ShMem   1 Linda.
 D1PCM: PCM CHGder 1st derivatives, ID1Alg=3 FixD1E=F DoIter=F DoCFld=F I1PDM=0.
 CoulSu:  requested number of processors reduced to:  29 ShMem   1 Linda.
 CoulSu:  requested number of processors reduced to:  30 ShMem   1 Linda.
 Calling FoFJK, ICntrl=      2127 FMM=F ISym2X=0 I1Cent= 0 IOpClX= 0 NMat=1 NMatS=1 NMatT=0.
 -------------------------------------------------------------------
 Center     Atomic                   Forces (Hartrees/Bohr)
 Number     Number              X              Y              Z
 -------------------------------------------------------------------
      1        6          -0.000424414   -0.000267193   -0.000035936
      2        1          -0.000350776    0.000350211   -0.000859444
      3        1           0.000791419   -0.000766771    0.000195029
      4        1          -0.000675196    0.000471225    0.000645752
      5        6           0.001266644   -0.000103183    0.000044381
      6        6          -0.000381262    0.000140921   -0.000035449
      7        1          -0.000443471   -0.000342709    0.000792257
      8        1          -0.000606927   -0.000513117   -0.000723583
      9        1           0.000808523    0.000745605   -0.000120803
     10        8          -0.000791087    0.000048172    0.000063951
     11        8           0.000952293   -0.000102491   -0.000192916
     12        1          -0.000568402   -0.000530504    0.000139549
     13        1           0.000057375    0.001005560   -0.000124804
     14        1           0.000365284   -0.000135726    0.000212016
 -------------------------------------------------------------------
 Cartesian Forces:  Max     0.001266644 RMS     0.000537338
 IRC-IRC-IRC-IRC-IRC-IRC-IRC-IRC-IRC-IRC-IRC-IRC-IRC-IRC-IRC-IRC-IRC-IRC
 Pt  1 Step number   1 out of a maximum of  20
 Modified Bulirsch-Stoer Extrapolation Cycles:
    EPS =    0.000010000000000
      PEZero:  N= 2 I= 1 D=  2.62D-04 Err=  5.79D-04
      PEZero:  N= 3 I= 2 D=  2.62D-04 Err=  3.85D-04
      PEZero:  N= 3 I= 1 D=  5.25D-04 Err=  2.99D-06
 Maximum DWI energy   std dev =  0.000000427 at pt    12
 Maximum DWI gradient std dev =  0.393934014 at pt    26
 CORRECTOR INTEGRATION CONVERGENCE:
   Recorrection delta-x convergence threshold:    0.010000
   Delta-x Convergence NOT Met
 IRC-IRC-IRC-IRC-IRC-IRC-IRC-IRC-IRC-IRC-IRC-IRC-IRC-IRC-IRC-IRC-IRC-IRC
                          Input orientation:                          
 ---------------------------------------------------------------------
 Center     Atomic      Atomic             Coordinates (Angstroms)
 Number     Number       Type             X           Y           Z
 ---------------------------------------------------------------------
      1          6           0        1.618242    1.287529    0.012557
      2          1           0        2.085319    1.390303    1.000645
      3          1           0        0.964923    2.142470   -0.171483
      4          1           0        2.432431    1.265398   -0.720590
      5          6           0        0.843581   -0.000808   -0.027725
      6          6           0        1.623424   -1.285567    0.018042
      7          1           0        2.192051   -1.389696   -0.915113
      8          1           0        2.356085   -1.257434    0.832437
      9          1           0        0.957889   -2.142828    0.135665
     10          8           0       -0.387517   -0.002408   -0.097147
     11          8           0       -2.862057    0.000018    0.121701
     12          1           0       -2.273615    0.788110   -0.007619
     13          1           0       -2.224640   -0.752540   -0.006715
     14          1           0       -3.559676   -0.019407   -0.571153
 ---------------------------------------------------------------------
                    Distance matrix (angstroms):
                    1          2          3          4          5
     1  C    0.000000
     2  H    1.097744   0.000000
     3  H    1.091613   1.787435   0.000000
     4  H    1.095855   1.760324   1.795649   0.000000
     5  C    1.503840   2.129471   2.151519   2.146575   0.000000
     6  C    2.573107   2.887756   3.495852   2.776237   1.503614
     7  H    2.890910   3.377856   3.812482   2.673040   2.129516
     8  H    2.773707   2.666855   3.808219   2.963511   2.146312
     9  H    3.495507   3.808189   4.296297   3.810964   2.151281
    10  O    2.387266   3.042976   2.536754   3.154064   1.233054
    11  O    4.662904   5.213632   4.395661   5.508379   3.708649
    12  H    3.923822   4.514370   3.514153   4.783618   3.215541
    13  H    4.350861   4.917549   4.310631   5.125427   3.159037
    14  H    5.372116   6.026923   5.030452   6.130123   4.436703
                    6          7          8          9         10
     6  C    0.000000
     7  H    1.097706   0.000000
     8  H    1.095820   1.760207   0.000000
     9  H    1.091635   1.787316   1.795652   0.000000
    10  O    2.388231   3.041020   3.156987   2.538842   0.000000
    11  O    4.667227   5.343247   5.414364   4.379951   2.484200
    12  H    4.414488   5.050600   5.130699   4.365037   2.047022
    13  H    3.884884   4.553933   4.684243   3.475868   1.986428
    14  H    5.367946   5.922699   6.204757   5.041518   3.207424
                   11         12         13         14
    11  O    0.000000
    12  H    0.992006   0.000000
    13  H    0.994553   1.541429   0.000000
    14  H    0.983411   1.619756   1.624315   0.000000
 Symmetry turned off by external request.
 Stoichiometry    C3H9O2(1+)
 Framework group  C1[X(C3H9O2)]
 Deg. of freedom    36
 Full point group                 C1      NOp   1
 Rotational constants (GHZ):           8.2699168           1.9859207           1.6412376
 Standard basis: 6-31+G(d) (6D, 7F)
   113 basis functions,   196 primitive gaussians,   113 cartesian basis functions
    21 alpha electrons       21 beta electrons
       nuclear repulsion energy       183.9515643659 Hartrees.
 NAtoms=   14 NActive=   14 NUniq=   14 SFac= 1.00D+00 NAtFMM=   60 NAOKFM=F Big=F
 Integral buffers will be    131072 words long.
 Raffenetti 2 integral format.
 Two-electron integral symmetry is turned off.
 Nuclear repulsion after empirical dispersion term =      183.9385539242 Hartrees.
 Force inversion solution in PCM.
 ------------------------------------------------------------------------------
 Polarizable Continuum Model (PCM)
 =================================
 Model                : PCM.
 Atomic radii         : UFF (Universal Force Field).
 Polarization charges : Total charges.
 Charge compensation  : None.
 Solution method      : Matrix inversion.
 Cavity type          : Scaled VdW (van der Waals Surface) (Alpha=1.100).
 Cavity algorithm     : GePol (No added spheres)
                        Default sphere list used, NSphG=   14.
                        Lebedev-Laikov grids with approx.  5.0 points / Ang**2.
                        Smoothing algorithm: York/Karplus (Gamma=1.0000).
                        Polarization charges: spherical gaussians, with
                                              point-specific exponents (IZeta= 3).
                        Self-potential: point-specific (ISelfS= 7).
                        Self-field    : sphere-specific E.n sum rule (ISelfD= 2).
 1st derivatives      : Analytical E(r).r(x)/FMM algorithm (CHGder, D1EAlg=3).
                        Cavity 1st derivative terms included.
 Solvent              : Water, Eps=  78.355300 Eps(inf)=   1.777849
 ------------------------------------------------------------------------------
 Spheres list:
 ISph  on   Nord     Re0    Alpha      Xe            Ye            Ze
    1   C      1    1.9255  1.100      1.618242      1.287529      0.012557
    2   H      2    1.4430  1.100      2.085319      1.390303      1.000645
    3   H      3    1.4430  1.100      0.964923      2.142470     -0.171483
    4   H      4    1.4430  1.100      2.432431      1.265398     -0.720590
    5   C      5    1.9255  1.100      0.843581     -0.000808     -0.027725
    6   C      6    1.9255  1.100      1.623424     -1.285567      0.018042
    7   H      7    1.4430  1.100      2.192051     -1.389696     -0.915113
    8   H      8    1.4430  1.100      2.356085     -1.257434      0.832437
    9   H      9    1.4430  1.100      0.957889     -2.142828      0.135665
   10   O     10    1.7500  1.100     -0.387517     -0.002408     -0.097147
   11   O     11    1.7500  1.100     -2.862057      0.000018      0.121701
   12   H     12    1.4430  1.100     -2.273615      0.788110     -0.007619
   13   H     13    1.4430  1.100     -2.224640     -0.752540     -0.006715
   14   H     14    1.4430  1.100     -3.559676     -0.019407     -0.571153
 ------------------------------------------------------------------------------
 One-electron integrals computed using PRISM.
 PrsmSu:  requested number of processors reduced to:  30 ShMem   1 Linda.
 NBasis=   113 RedAO= T EigKep=  1.35D-04  NBF=   113
 NBsUse=   113 1.00D-06 EigRej= -1.00D+00 NBFU=   113
 Initial guess from the checkpoint file:  "IRC.chk"
 B after Tr=    -0.000044   -0.000111   -0.000068
         Rot=    1.000000   -0.000007   -0.000003    0.000003 Ang=  -0.00 deg.
 ExpMin= 4.38D-02 ExpMax= 5.48D+03 ExpMxC= 8.25D+02 IAcc=3 IRadAn=         5 AccDes= 0.00D+00
 Harris functional with IExCor=  402 and IRadAn=       5 diagonalized for initial guess.
 HarFok:  IExCor=  402 AccDes= 0.00D+00 IRadAn=         5 IDoV= 1 UseB2=F ITyADJ=14
 ICtDFT=  3500011 ScaDFX=  1.000000  1.000000  1.000000  1.000000
 FoFCou: FMM=F IPFlag=           0 FMFlag=      100000 FMFlg1=           0
         NFxFlg=           0 DoJE=T BraDBF=F KetDBF=T FulRan=T
         wScrn=  0.000000 ICntrl=       500 IOpCl=  0 I1Cent=   200000004 NGrid=           0
         NMat0=    1 NMatS0=      1 NMatT0=    0 NMatD0=    1 NMtDS0=    0 NMtDT0=    0
 Symmetry not used in FoFCou.
 Requested convergence on RMS density matrix=1.00D-08 within 128 cycles.
 Requested convergence on MAX density matrix=1.00D-06.
 Requested convergence on             energy=1.00D-06.
 No special actions if energy rises.
 Inv3:  Mode=1 IEnd=     4370547.
 Iteration    1 A*A^-1 deviation from unit magnitude is 3.11D-15 for   1191.
 Iteration    1 A*A^-1 deviation from orthogonality  is 2.98D-15 for   1205   1067.
 Iteration    1 A^-1*A deviation from unit magnitude is 3.33D-15 for   1191.
 Iteration    1 A^-1*A deviation from orthogonality  is 2.61D-15 for   1201   1155.
 Error on total polarization charges =  0.00779
 SCF Done:  E(RB3LYP) =  -270.014542002     A.U. after    9 cycles
            NFock=  9  Conv=0.32D-08     -V/T= 2.0100
 DoSCS=F DFT=T ScalE2(SS,OS)=  1.000000  1.000000
 Range of M.O.s used for correlation:     1   113
 NBasis=   113 NAE=    21 NBE=    21 NFC=     0 NFV=     0
 NROrb=    113 NOA=    21 NOB=    21 NVA=    92 NVB=    92

 **** Warning!!: The largest alpha MO coefficient is  0.34573320D+02

 Symmetrizing basis deriv contribution to polar:
 IMax=3 JMax=2 DiffMx= 0.00D+00
 PrsmSu:  requested number of processors reduced to:  30 ShMem   1 Linda.
 D1PCM: PCM CHGder 1st derivatives, ID1Alg=3 FixD1E=F DoIter=F DoCFld=F I1PDM=0.
 CoulSu:  requested number of processors reduced to:  29 ShMem   1 Linda.
 CoulSu:  requested number of processors reduced to:  30 ShMem   1 Linda.
 Calling FoFJK, ICntrl=      2127 FMM=F ISym2X=0 I1Cent= 0 IOpClX= 0 NMat=1 NMatS=1 NMatT=0.
 -------------------------------------------------------------------
 Center     Atomic                   Forces (Hartrees/Bohr)
 Number     Number              X              Y              Z
 -------------------------------------------------------------------
      1        6          -0.000321836    0.000093157   -0.000048064
      2        1          -0.000035365    0.000041921   -0.000009746
      3        1          -0.000067154   -0.000019503   -0.000016487
      4        1          -0.000028929    0.000040284   -0.000005998
      5        6           0.000053047   -0.000087969    0.000010400
      6        6          -0.000304284   -0.000213485   -0.000044243
      7        1          -0.000037433   -0.000045250   -0.000007536
      8        1          -0.000024571   -0.000054485   -0.000010400
      9        1          -0.000064824    0.000006381   -0.000003875
     10        8           0.000065301    0.000045701    0.000093894
     11        8           0.000616401   -0.000179365    0.000023886
     12        1          -0.000206262    0.000246616    0.000110236
     13        1           0.000305469    0.000235073   -0.000091530
     14        1           0.000050440   -0.000109076   -0.000000538
 -------------------------------------------------------------------
 Cartesian Forces:  Max     0.000616401 RMS     0.000154482
 IRC-IRC-IRC-IRC-IRC-IRC-IRC-IRC-IRC-IRC-IRC-IRC-IRC-IRC-IRC-IRC-IRC-IRC
 Error in corrector energy =          -0.0000001478
 Magnitude of corrector gradient =     0.0009886051
 Magnitude of analytic gradient =      0.0010011600
 Magnitude of difference =             0.0001033611
 Angle between gradients (degrees)=    5.9113
 Pt  1 Step number   2 out of a maximum of  20
 Modified Bulirsch-Stoer Extrapolation Cycles:
    EPS =    0.000010000000000
      PEZero:  N= 2 I= 1 D=  2.62D-04 Err=  5.81D-04
      PEZero:  N= 3 I= 2 D=  2.62D-04 Err=  3.86D-04
      PEZero:  N= 3 I= 1 D=  5.25D-04 Err=  3.02D-06
 Maximum DWI energy   std dev =  0.000000128 at pt     1
 Maximum DWI gradient std dev =  0.255735187 at pt    20
 CORRECTOR INTEGRATION CONVERGENCE:
   Recorrection delta-x convergence threshold:    0.010000
   Delta-x Convergence Met
 Point Number:   1          Path Number:   1
   CHANGE IN THE REACTION COORDINATE =    0.08823
   NET REACTION COORDINATE UP TO THIS POINT =    0.08823
  # OF POINTS ALONG THE PATH =   1
  # OF STEPS =   2

 Calculating another point on the path.
 IRC-IRC-IRC-IRC-IRC-IRC-IRC-IRC-IRC-IRC-IRC-IRC-IRC-IRC-IRC-IRC-IRC-IRC
                          Input orientation:                          
 ---------------------------------------------------------------------
 Center     Atomic      Atomic             Coordinates (Angstroms)
 Number     Number       Type             X           Y           Z
 ---------------------------------------------------------------------
      1          6           0        1.616731    1.287834    0.012159
      2          1           0        2.083674    1.392088    1.000132
      3          1           0        0.961669    2.141354   -0.172343
      4          1           0        2.430795    1.266905   -0.721180
      5          6           0        0.843612   -0.001520   -0.027643
      6          6           0        1.622083   -1.286798    0.017878
      7          1           0        2.189982   -1.391976   -0.915617
      8          1           0        2.355179   -1.259924    0.831903
      9          1           0        0.955069   -2.142893    0.135774
     10          8           0       -0.387485   -0.002153   -0.096818
     11          8           0       -2.859676   -0.000689    0.121856
     12          1           0       -2.297548    0.807860    0.003408
     13          1           0       -2.196075   -0.731805   -0.016662
     14          1           0       -3.556696   -0.030731   -0.571285
 ---------------------------------------------------------------------
                    Distance matrix (angstroms):
                    1          2          3          4          5
     1  C    0.000000
     2  H    1.097723   0.000000
     3  H    1.091624   1.787455   0.000000
     4  H    1.095867   1.760420   1.795610   0.000000
     5  C    1.503906   2.129840   2.150996   2.146869   0.000000
     6  C    2.574644   2.890384   3.496363   2.778780   1.503339
     7  H    2.893228   3.381184   3.813873   2.676835   2.129455
     8  H    2.776393   2.671177   3.810390   2.966926   2.146447
     9  H    3.496135   3.810112   4.295317   3.812985   2.150489
    10  O    2.385964   3.042012   2.533879   3.153259   1.233039
    11  O    4.659458   5.210366   4.390624   5.505142   3.706304
    12  H    3.943606   4.530992   3.525846   4.805515   3.243909
    13  H    4.314773   4.884777   4.272075   5.089118   3.126201
    14  H    5.370602   6.025574   5.029187   6.128326   4.433859
                    6          7          8          9         10
     6  C    0.000000
     7  H    1.097718   0.000000
     8  H    1.095805   1.760271   0.000000
     9  H    1.091653   1.787262   1.795699   0.000000
    10  O    2.387851   3.040621   3.157011   2.537581   0.000000
    11  O    4.663802   5.339576   5.411520   4.375101   2.481844
    12  H    4.444244   5.081516   5.158488   4.393629   2.077139
    13  H    3.858438   4.525643   4.659709   3.456026   1.951875
    14  H    5.361396   5.915730   6.199203   5.031618   3.204658
                   11         12         13         14
    11  O    0.000000
    12  H    0.991851   0.000000
    13  H    0.997037   1.543135   0.000000
    14  H    0.983455   1.618320   1.628005   0.000000
 Symmetry turned off by external request.
 Stoichiometry    C3H9O2(1+)
 Framework group  C1[X(C3H9O2)]
 Deg. of freedom    36
 Full point group                 C1      NOp   1
 Rotational constants (GHZ):           8.2611316           1.9891018           1.6430557
 Standard basis: 6-31+G(d) (6D, 7F)
   113 basis functions,   196 primitive gaussians,   113 cartesian basis functions
    21 alpha electrons       21 beta electrons
       nuclear repulsion energy       183.9903535565 Hartrees.
 NAtoms=   14 NActive=   14 NUniq=   14 SFac= 1.00D+00 NAtFMM=   60 NAOKFM=F Big=F
 Integral buffers will be    131072 words long.
 Raffenetti 2 integral format.
 Two-electron integral symmetry is turned off.
 Nuclear repulsion after empirical dispersion term =      183.9773400559 Hartrees.
 Force inversion solution in PCM.
 ------------------------------------------------------------------------------
 Polarizable Continuum Model (PCM)
 =================================
 Model                : PCM.
 Atomic radii         : UFF (Universal Force Field).
 Polarization charges : Total charges.
 Charge compensation  : None.
 Solution method      : Matrix inversion.
 Cavity type          : Scaled VdW (van der Waals Surface) (Alpha=1.100).
 Cavity algorithm     : GePol (No added spheres)
                        Default sphere list used, NSphG=   14.
                        Lebedev-Laikov grids with approx.  5.0 points / Ang**2.
                        Smoothing algorithm: York/Karplus (Gamma=1.0000).
                        Polarization charges: spherical gaussians, with
                                              point-specific exponents (IZeta= 3).
                        Self-potential: point-specific (ISelfS= 7).
                        Self-field    : sphere-specific E.n sum rule (ISelfD= 2).
 1st derivatives      : Analytical E(r).r(x)/FMM algorithm (CHGder, D1EAlg=3).
                        Cavity 1st derivative terms included.
 Solvent              : Water, Eps=  78.355300 Eps(inf)=   1.777849
 ------------------------------------------------------------------------------
 Spheres list:
 ISph  on   Nord     Re0    Alpha      Xe            Ye            Ze
    1   C      1    1.9255  1.100      1.616731      1.287834      0.012159
    2   H      2    1.4430  1.100      2.083674      1.392088      1.000132
    3   H      3    1.4430  1.100      0.961669      2.141354     -0.172343
    4   H      4    1.4430  1.100      2.430795      1.266905     -0.721180
    5   C      5    1.9255  1.100      0.843612     -0.001520     -0.027643
    6   C      6    1.9255  1.100      1.622083     -1.286798      0.017878
    7   H      7    1.4430  1.100      2.189982     -1.391976     -0.915617
    8   H      8    1.4430  1.100      2.355179     -1.259924      0.831903
    9   H      9    1.4430  1.100      0.955069     -2.142893      0.135774
   10   O     10    1.7500  1.100     -0.387485     -0.002153     -0.096818
   11   O     11    1.7500  1.100     -2.859676     -0.000689      0.121856
   12   H     12    1.4430  1.100     -2.297548      0.807860      0.003408
   13   H     13    1.4430  1.100     -2.196075     -0.731805     -0.016662
   14   H     14    1.4430  1.100     -3.556696     -0.030731     -0.571285
 ------------------------------------------------------------------------------
 One-electron integrals computed using PRISM.
 PrsmSu:  requested number of processors reduced to:  30 ShMem   1 Linda.
 NBasis=   113 RedAO= T EigKep=  1.34D-04  NBF=   113
 NBsUse=   113 1.00D-06 EigRej= -1.00D+00 NBFU=   113
 Initial guess from the checkpoint file:  "IRC.chk"
 B after Tr=    -0.000101    0.000576   -0.000034
         Rot=    1.000000   -0.000072   -0.000062    0.000027 Ang=  -0.01 deg.
 ExpMin= 4.38D-02 ExpMax= 5.48D+03 ExpMxC= 8.25D+02 IAcc=3 IRadAn=         5 AccDes= 0.00D+00
 Harris functional with IExCor=  402 and IRadAn=       5 diagonalized for initial guess.
 HarFok:  IExCor=  402 AccDes= 0.00D+00 IRadAn=         5 IDoV= 1 UseB2=F ITyADJ=14
 ICtDFT=  3500011 ScaDFX=  1.000000  1.000000  1.000000  1.000000
 FoFCou: FMM=F IPFlag=           0 FMFlag=      100000 FMFlg1=           0
         NFxFlg=           0 DoJE=T BraDBF=F KetDBF=T FulRan=T
         wScrn=  0.000000 ICntrl=       500 IOpCl=  0 I1Cent=   200000004 NGrid=           0
         NMat0=    1 NMatS0=      1 NMatT0=    0 NMatD0=    1 NMtDS0=    0 NMtDT0=    0
 Symmetry not used in FoFCou.
 Requested convergence on RMS density matrix=1.00D-08 within 128 cycles.
 Requested convergence on MAX density matrix=1.00D-06.
 Requested convergence on             energy=1.00D-06.
 No special actions if energy rises.
 Inv3:  Mode=1 IEnd=     4399563.
 Iteration    1 A*A^-1 deviation from unit magnitude is 7.66D-15 for   1206.
 Iteration    1 A*A^-1 deviation from orthogonality  is 1.90D-15 for   1194    186.
 Iteration    1 A^-1*A deviation from unit magnitude is 7.66D-15 for   1206.
 Iteration    1 A^-1*A deviation from orthogonality  is 2.60D-15 for   1189    598.
 Error on total polarization charges =  0.00780
 SCF Done:  E(RB3LYP) =  -270.014626474     A.U. after    9 cycles
            NFock=  9  Conv=0.36D-08     -V/T= 2.0100
 DoSCS=F DFT=T ScalE2(SS,OS)=  1.000000  1.000000
 Range of M.O.s used for correlation:     1   113
 NBasis=   113 NAE=    21 NBE=    21 NFC=     0 NFV=     0
 NROrb=    113 NOA=    21 NOB=    21 NVA=    92 NVB=    92

 **** Warning!!: The largest alpha MO coefficient is  0.34626461D+02

 Symmetrizing basis deriv contribution to polar:
 IMax=3 JMax=2 DiffMx= 0.00D+00
 PrsmSu:  requested number of processors reduced to:  30 ShMem   1 Linda.
 D1PCM: PCM CHGder 1st derivatives, ID1Alg=3 FixD1E=F DoIter=F DoCFld=F I1PDM=0.
 CoulSu:  requested number of processors reduced to:  29 ShMem   1 Linda.
 CoulSu:  requested number of processors reduced to:  30 ShMem   1 Linda.
 Calling FoFJK, ICntrl=      2127 FMM=F ISym2X=0 I1Cent= 0 IOpClX= 0 NMat=1 NMatS=1 NMatT=0.
 -------------------------------------------------------------------
 Center     Atomic                   Forces (Hartrees/Bohr)
 Number     Number              X              Y              Z
 -------------------------------------------------------------------
      1        6          -0.000249052   -0.000018545   -0.000077921
      2        1          -0.000028177    0.000013863   -0.000001025
      3        1          -0.000039023   -0.000021224   -0.000002737
      4        1          -0.000025949    0.000011619    0.000004793
      5        6           0.000026641   -0.000198296    0.000008223
      6        6          -0.000205660   -0.000238530   -0.000049676
      7        1          -0.000026462   -0.000025765   -0.000000605
      8        1          -0.000016029   -0.000030690   -0.000006591
      9        1          -0.000028726   -0.000005393    0.000002204
     10        8          -0.000065021    0.000104173    0.000050275
     11        8           0.001349629   -0.000236158   -0.000191833
     12        1          -0.000967231   -0.000220555    0.000297159
     13        1           0.000131870    0.001089545   -0.000079184
     14        1           0.000143190   -0.000224043    0.000046918
 -------------------------------------------------------------------
 Cartesian Forces:  Max     0.001349629 RMS     0.000327519
 IRC-IRC-IRC-IRC-IRC-IRC-IRC-IRC-IRC-IRC-IRC-IRC-IRC-IRC-IRC-IRC-IRC-IRC
 Pt  2 Step number   1 out of a maximum of  20
 Modified Bulirsch-Stoer Extrapolation Cycles:
    EPS =    0.000010000000000
      PEZero:  N= 2 I= 1 D=  5.23D-04 Err=  1.15D-04
      PEZero:  N= 3 I= 2 D=  5.23D-04 Err=  7.67D-05
      PEZero:  N= 3 I= 1 D=  1.05D-03 Err=  3.25D-07
 Maximum DWI energy   std dev =  0.000000436 at pt    50
 Maximum DWI gradient std dev =  0.337292109 at pt    36
 CORRECTOR INTEGRATION CONVERGENCE:
   Recorrection delta-x convergence threshold:    0.010000
   Delta-x Convergence Met
 Point Number:   2          Path Number:   1
   CHANGE IN THE REACTION COORDINATE =    0.10000
   NET REACTION COORDINATE UP TO THIS POINT =    0.18823
  # OF POINTS ALONG THE PATH =   2
  # OF STEPS =   1

 Calculating another point on the path.
 IRC-IRC-IRC-IRC-IRC-IRC-IRC-IRC-IRC-IRC-IRC-IRC-IRC-IRC-IRC-IRC-IRC-IRC
                          Input orientation:                          
 ---------------------------------------------------------------------
 Center     Atomic      Atomic             Coordinates (Angstroms)
 Number     Number       Type             X           Y           Z
 ---------------------------------------------------------------------
      1          6           0        1.615949    1.287615    0.011979
      2          1           0        2.082588    1.392453    1.000035
      3          1           0        0.960119    2.140491   -0.172697
      4          1           0        2.430103    1.267249   -0.721237
      5          6           0        0.843549   -0.002310   -0.027678
      6          6           0        1.621486   -1.287638    0.017698
      7          1           0        2.189192   -1.393072   -0.915869
      8          1           0        2.354677   -1.261178    0.831636
      9          1           0        0.954008   -2.143358    0.135663
     10          8           0       -0.387585   -0.001843   -0.096727
     11          8           0       -2.858332   -0.001187    0.121989
     12          1           0       -2.324790    0.827010    0.014115
     13          1           0       -2.168679   -0.708925   -0.024436
     14          1           0       -3.553896   -0.043470   -0.571997
 ---------------------------------------------------------------------
                    Distance matrix (angstroms):
                    1          2          3          4          5
     1  C    0.000000
     2  H    1.097724   0.000000
     3  H    1.091611   1.787399   0.000000
     4  H    1.095841   1.760460   1.795633   0.000000
     5  C    1.504021   2.129970   2.150864   2.147081   0.000000
     6  C    2.575265   2.891450   3.496530   2.779808   1.503101
     7  H    2.894061   3.382484   3.814314   2.678288   2.129286
     8  H    2.777391   2.672853   3.811145   2.968172   2.146318
     9  H    3.496432   3.810877   4.294937   3.813839   2.150109
    10  O    2.385092   3.041168   2.532128   3.152772   1.233068
    11  O    4.657499   5.208251   4.387960   5.503408   3.704905
    12  H    3.967566   4.551564   3.542705   4.831517   3.275345
    13  H    4.279124   4.851659   4.234446   5.053671   3.093999
    14  H    5.370299   6.025206   5.030453   6.127683   4.431196
                    6          7          8          9         10
     6  C    0.000000
     7  H    1.097704   0.000000
     8  H    1.095794   1.760271   0.000000
     9  H    1.091650   1.787268   1.795688   0.000000
    10  O    2.388038   3.040771   3.157180   2.537708   0.000000
    11  O    4.662038   5.337789   5.409865   4.372988   2.480409
    12  H    4.477147   5.115630   5.189054   4.425876   2.109988
    13  H    3.834323   4.500417   4.636657   3.440116   1.917677
    14  H    5.355397   5.909546   6.193887   5.023098   3.202053
                   11         12         13         14
    11  O    0.000000
    12  H    0.991068   0.000000
    13  H    0.998977   1.544330   0.000000
    14  H    0.983470   1.616158   1.631405   0.000000
 Symmetry turned off by external request.
 Stoichiometry    C3H9O2(1+)
 Framework group  C1[X(C3H9O2)]
 Deg. of freedom    36
 Full point group                 C1      NOp   1
 Rotational constants (GHZ):           8.2576646           1.9907264           1.6440378
 Standard basis: 6-31+G(d) (6D, 7F)
   113 basis functions,   196 primitive gaussians,   113 cartesian basis functions
    21 alpha electrons       21 beta electrons
       nuclear repulsion energy       184.0159196656 Hartrees.
 NAtoms=   14 NActive=   14 NUniq=   14 SFac= 1.00D+00 NAtFMM=   60 NAOKFM=F Big=F
 Integral buffers will be    131072 words long.
 Raffenetti 2 integral format.
 Two-electron integral symmetry is turned off.
 Nuclear repulsion after empirical dispersion term =      184.0029044565 Hartrees.
 Force inversion solution in PCM.
 ------------------------------------------------------------------------------
 Polarizable Continuum Model (PCM)
 =================================
 Model                : PCM.
 Atomic radii         : UFF (Universal Force Field).
 Polarization charges : Total charges.
 Charge compensation  : None.
 Solution method      : Matrix inversion.
 Cavity type          : Scaled VdW (van der Waals Surface) (Alpha=1.100).
 Cavity algorithm     : GePol (No added spheres)
                        Default sphere list used, NSphG=   14.
                        Lebedev-Laikov grids with approx.  5.0 points / Ang**2.
                        Smoothing algorithm: York/Karplus (Gamma=1.0000).
                        Polarization charges: spherical gaussians, with
                                              point-specific exponents (IZeta= 3).
                        Self-potential: point-specific (ISelfS= 7).
                        Self-field    : sphere-specific E.n sum rule (ISelfD= 2).
 1st derivatives      : Analytical E(r).r(x)/FMM algorithm (CHGder, D1EAlg=3).
                        Cavity 1st derivative terms included.
 Solvent              : Water, Eps=  78.355300 Eps(inf)=   1.777849
 ------------------------------------------------------------------------------
 Spheres list:
 ISph  on   Nord     Re0    Alpha      Xe            Ye            Ze
    1   C      1    1.9255  1.100      1.615949      1.287615      0.011979
    2   H      2    1.4430  1.100      2.082588      1.392453      1.000035
    3   H      3    1.4430  1.100      0.960119      2.140491     -0.172697
    4   H      4    1.4430  1.100      2.430103      1.267249     -0.721237
    5   C      5    1.9255  1.100      0.843549     -0.002310     -0.027678
    6   C      6    1.9255  1.100      1.621486     -1.287638      0.017698
    7   H      7    1.4430  1.100      2.189192     -1.393072     -0.915869
    8   H      8    1.4430  1.100      2.354677     -1.261178      0.831636
    9   H      9    1.4430  1.100      0.954008     -2.143358      0.135663
   10   O     10    1.7500  1.100     -0.387585     -0.001843     -0.096727
   11   O     11    1.7500  1.100     -2.858332     -0.001187      0.121989
   12   H     12    1.4430  1.100     -2.324790      0.827010      0.014115
   13   H     13    1.4430  1.100     -2.168679     -0.708925     -0.024436
   14   H     14    1.4430  1.100     -3.553896     -0.043470     -0.571997
 ------------------------------------------------------------------------------
 One-electron integrals computed using PRISM.
 PrsmSu:  requested number of processors reduced to:  30 ShMem   1 Linda.
 NBasis=   113 RedAO= T EigKep=  1.33D-04  NBF=   113
 NBsUse=   113 1.00D-06 EigRej= -1.00D+00 NBFU=   113
 Initial guess from the checkpoint file:  "IRC.chk"
 B after Tr=    -0.000062    0.000606    0.000027
         Rot=    1.000000   -0.000095   -0.000043    0.000035 Ang=  -0.01 deg.
 ExpMin= 4.38D-02 ExpMax= 5.48D+03 ExpMxC= 8.25D+02 IAcc=3 IRadAn=         5 AccDes= 0.00D+00
 Harris functional with IExCor=  402 and IRadAn=       5 diagonalized for initial guess.
 HarFok:  IExCor=  402 AccDes= 0.00D+00 IRadAn=         5 IDoV= 1 UseB2=F ITyADJ=14
 ICtDFT=  3500011 ScaDFX=  1.000000  1.000000  1.000000  1.000000
 FoFCou: FMM=F IPFlag=           0 FMFlag=      100000 FMFlg1=           0
         NFxFlg=           0 DoJE=T BraDBF=F KetDBF=T FulRan=T
         wScrn=  0.000000 ICntrl=       500 IOpCl=  0 I1Cent=   200000004 NGrid=           0
         NMat0=    1 NMatS0=      1 NMatT0=    0 NMatD0=    1 NMtDS0=    0 NMtDT0=    0
 Symmetry not used in FoFCou.
 Requested convergence on RMS density matrix=1.00D-08 within 128 cycles.
 Requested convergence on MAX density matrix=1.00D-06.
 Requested convergence on             energy=1.00D-06.
 No special actions if energy rises.
 Inv3:  Mode=1 IEnd=     4363308.
 Iteration    1 A*A^-1 deviation from unit magnitude is 5.44D-15 for   1176.
 Iteration    1 A*A^-1 deviation from orthogonality  is 1.99D-15 for   1182    326.
 Iteration    1 A^-1*A deviation from unit magnitude is 5.66D-15 for   1176.
 Iteration    1 A^-1*A deviation from orthogonality  is 9.48D-16 for   1200    652.
 Error on total polarization charges =  0.00777
 SCF Done:  E(RB3LYP) =  -270.014768401     A.U. after    9 cycles
            NFock=  9  Conv=0.36D-08     -V/T= 2.0100
 DoSCS=F DFT=T ScalE2(SS,OS)=  1.000000  1.000000
 Range of M.O.s used for correlation:     1   113
 NBasis=   113 NAE=    21 NBE=    21 NFC=     0 NFV=     0
 NROrb=    113 NOA=    21 NOB=    21 NVA=    92 NVB=    92

 **** Warning!!: The largest alpha MO coefficient is  0.34629504D+02

 Symmetrizing basis deriv contribution to polar:
 IMax=3 JMax=2 DiffMx= 0.00D+00
 PrsmSu:  requested number of processors reduced to:  30 ShMem   1 Linda.
 D1PCM: PCM CHGder 1st derivatives, ID1Alg=3 FixD1E=F DoIter=F DoCFld=F I1PDM=0.
 CoulSu:  requested number of processors reduced to:  29 ShMem   1 Linda.
 CoulSu:  requested number of processors reduced to:  30 ShMem   1 Linda.
 Calling FoFJK, ICntrl=      2127 FMM=F ISym2X=0 I1Cent= 0 IOpClX= 0 NMat=1 NMatS=1 NMatT=0.
 -------------------------------------------------------------------
 Center     Atomic                   Forces (Hartrees/Bohr)
 Number     Number              X              Y              Z
 -------------------------------------------------------------------
      1        6          -0.000248882   -0.000119585   -0.000056681
      2        1          -0.000022752   -0.000000505   -0.000001762
      3        1          -0.000032824   -0.000022320   -0.000008433
      4        1          -0.000017177   -0.000003238   -0.000003273
      5        6           0.000036804   -0.000295163    0.000000312
      6        6          -0.000177268   -0.000276306   -0.000034746
      7        1          -0.000017747   -0.000022943   -0.000007070
      8        1          -0.000007569   -0.000022819   -0.000005215
      9        1          -0.000018363   -0.000017546   -0.000000987
     10        8          -0.000111785    0.000156949    0.000020047
     11        8           0.001506064   -0.000245236   -0.000271131
     12        1          -0.001406514   -0.000223996    0.000395950
     13        1           0.000313495    0.001455495   -0.000101137
     14        1           0.000204518   -0.000362786    0.000074127
 -------------------------------------------------------------------
 Cartesian Forces:  Max     0.001506064 RMS     0.000417250
 IRC-IRC-IRC-IRC-IRC-IRC-IRC-IRC-IRC-IRC-IRC-IRC-IRC-IRC-IRC-IRC-IRC-IRC
 Pt  3 Step number   1 out of a maximum of  20
 Modified Bulirsch-Stoer Extrapolation Cycles:
    EPS =    0.000010000000000
      PEZero:  N= 2 I= 1 D=  5.25D-04 Err=  3.58D-05
      PEZero:  N= 3 I= 2 D=  5.25D-04 Err=  2.38D-05
      PEZero:  N= 3 I= 1 D=  1.05D-03 Err=  8.44D-08
 Maximum DWI energy   std dev =  0.000001002 at pt    56
 Maximum DWI gradient std dev =  0.263675651 at pt    55
 CORRECTOR INTEGRATION CONVERGENCE:
   Recorrection delta-x convergence threshold:    0.010000
   Delta-x Convergence Met
 Point Number:   3          Path Number:   1
   CHANGE IN THE REACTION COORDINATE =    0.10068
   NET REACTION COORDINATE UP TO THIS POINT =    0.28891
  # OF POINTS ALONG THE PATH =   3
  # OF STEPS =   1

 Calculating another point on the path.
 IRC-IRC-IRC-IRC-IRC-IRC-IRC-IRC-IRC-IRC-IRC-IRC-IRC-IRC-IRC-IRC-IRC-IRC
                          Input orientation:                          
 ---------------------------------------------------------------------
 Center     Atomic      Atomic             Coordinates (Angstroms)
 Number     Number       Type             X           Y           Z
 ---------------------------------------------------------------------
      1          6           0        1.615404    1.287240    0.011873
      2          1           0        2.081906    1.392396    0.999961
      3          1           0        0.959134    2.139735   -0.172932
      4          1           0        2.429601    1.267157   -0.721297
      5          6           0        0.843492   -0.003095   -0.027692
      6          6           0        1.621122   -1.288322    0.017600
      7          1           0        2.188684   -1.393808   -0.916053
      8          1           0        2.354446   -1.261973    0.831418
      9          1           0        0.953498   -2.143919    0.135615
     10          8           0       -0.387712   -0.001526   -0.096709
     11          8           0       -2.857304   -0.001623    0.122010
     12          1           0       -2.353677    0.845213    0.023801
     13          1           0       -2.142032   -0.684950   -0.030697
     14          1           0       -3.551216   -0.057171   -0.572685
 ---------------------------------------------------------------------
                    Distance matrix (angstroms):
                    1          2          3          4          5
     1  C    0.000000
     2  H    1.097725   0.000000
     3  H    1.091600   1.787403   0.000000
     4  H    1.095837   1.760485   1.795653   0.000000
     5  C    1.504121   2.130055   2.150858   2.147177   0.000000
     6  C    2.575575   2.891989   3.496585   2.780302   1.502853
     7  H    2.894429   3.383112   3.814440   2.678938   2.129040
     8  H    2.777828   2.673642   3.811461   2.968682   2.146119
     9  H    3.496611   3.811289   4.294756   3.814265   2.149860
    10  O    2.384361   3.040512   2.530771   3.152287   1.233138
    11  O    4.656009   5.206715   4.386070   5.502030   3.703823
    12  H    3.993637   4.574570   3.562192   4.859317   3.308197
    13  H    4.243780   4.818638   4.197179   5.018713   3.062399
    14  H    5.370579   6.025490   5.032839   6.127488   4.428702
                    6          7          8          9         10
     6  C    0.000000
     7  H    1.097708   0.000000
     8  H    1.095791   1.760259   0.000000
     9  H    1.091649   1.787277   1.795724   0.000000
    10  O    2.388372   3.040985   3.157463   2.538241   0.000000
    11  O    4.660772   5.336455   5.408704   4.371708   2.479259
    12  H    4.511212   5.150688   5.221006   4.459240   2.143947
    13  H    3.811524   4.476766   4.614598   3.426157   1.883897
    14  H    5.349509   5.903469   6.188691   5.014843   3.199596
                   11         12         13         14
    11  O    0.000000
    12  H    0.990160   0.000000
    13  H    1.000935   1.545692   0.000000
    14  H    0.983463   1.613751   1.635132   0.000000
 Symmetry turned off by external request.
 Stoichiometry    C3H9O2(1+)
 Framework group  C1[X(C3H9O2)]
 Deg. of freedom    36
 Full point group                 C1      NOp   1
 Rotational constants (GHZ):           8.2560952           1.9918033           1.6447223
 Standard basis: 6-31+G(d) (6D, 7F)
   113 basis functions,   196 primitive gaussians,   113 cartesian basis functions
    21 alpha electrons       21 beta electrons
       nuclear repulsion energy       184.0370698744 Hartrees.
 NAtoms=   14 NActive=   14 NUniq=   14 SFac= 1.00D+00 NAtFMM=   60 NAOKFM=F Big=F
 Integral buffers will be    131072 words long.
 Raffenetti 2 integral format.
 Two-electron integral symmetry is turned off.
 Nuclear repulsion after empirical dispersion term =      184.0240536068 Hartrees.
 Force inversion solution in PCM.
 ------------------------------------------------------------------------------
 Polarizable Continuum Model (PCM)
 =================================
 Model                : PCM.
 Atomic radii         : UFF (Universal Force Field).
 Polarization charges : Total charges.
 Charge compensation  : None.
 Solution method      : Matrix inversion.
 Cavity type          : Scaled VdW (van der Waals Surface) (Alpha=1.100).
 Cavity algorithm     : GePol (No added spheres)
                        Default sphere list used, NSphG=   14.
                        Lebedev-Laikov grids with approx.  5.0 points / Ang**2.
                        Smoothing algorithm: York/Karplus (Gamma=1.0000).
                        Polarization charges: spherical gaussians, with
                                              point-specific exponents (IZeta= 3).
                        Self-potential: point-specific (ISelfS= 7).
                        Self-field    : sphere-specific E.n sum rule (ISelfD= 2).
 1st derivatives      : Analytical E(r).r(x)/FMM algorithm (CHGder, D1EAlg=3).
                        Cavity 1st derivative terms included.
 Solvent              : Water, Eps=  78.355300 Eps(inf)=   1.777849
 ------------------------------------------------------------------------------
 Spheres list:
 ISph  on   Nord     Re0    Alpha      Xe            Ye            Ze
[...]
                   11         12         13         14
    11  O    0.000000
    12  H    1.041717   0.000000
    13  H    0.985353   1.621455   0.000000
    14  H    0.979501   1.677238   1.589525   0.000000
 Symmetry turned off by external request.
 Stoichiometry    C3H9O2(1+)
 Framework group  C1[X(C3H9O2)]
 Deg. of freedom    36
 Full point group                 C1      NOp   1
 Rotational constants (GHZ):           8.2571919           1.9988613           1.6505169
 Standard basis: 6-31+G(d) (6D, 7F)
   113 basis functions,   196 primitive gaussians,   113 cartesian basis functions
    21 alpha electrons       21 beta electrons
       nuclear repulsion energy       184.4159427384 Hartrees.
 NAtoms=   14 NActive=   14 NUniq=   14 SFac= 1.00D+00 NAtFMM=   60 NAOKFM=F Big=F
 Integral buffers will be    131072 words long.
 Raffenetti 2 integral format.
 Two-electron integral symmetry is turned off.
 Nuclear repulsion after empirical dispersion term =      184.4029457557 Hartrees.
 Force inversion solution in PCM.
 ------------------------------------------------------------------------------
 Polarizable Continuum Model (PCM)
 =================================
 Model                : PCM.
 Atomic radii         : UFF (Universal Force Field).
 Polarization charges : Total charges.
 Charge compensation  : None.
 Solution method      : Matrix inversion.
 Cavity type          : Scaled VdW (van der Waals Surface) (Alpha=1.100).
 Cavity algorithm     : GePol (No added spheres)
                        Default sphere list used, NSphG=   14.
                        Lebedev-Laikov grids with approx.  5.0 points / Ang**2.
                        Smoothing algorithm: York/Karplus (Gamma=1.0000).
                        Polarization charges: spherical gaussians, with
                                              point-specific exponents (IZeta= 3).
                        Self-potential: point-specific (ISelfS= 7).
                        Self-field    : sphere-specific E.n sum rule (ISelfD= 2).
 1st derivatives      : Analytical E(r).r(x)/FMM algorithm (CHGder, D1EAlg=3).
                        Cavity 1st derivative terms included.
 Solvent              : Water, Eps=  78.355300 Eps(inf)=   1.777849
 ------------------------------------------------------------------------------
 Spheres list:
 ISph  on   Nord     Re0    Alpha      Xe            Ye            Ze
    1   C      1    1.9255  1.100      1.610444      1.300642      0.011433
    2   H      2    1.4430  1.100      2.077459      1.402578      0.999704
    3   H      3    1.4430  1.100      0.956016      2.154290     -0.172752
    4   H      4    1.4430  1.100      2.425550      1.277501     -0.720527
    5   C      5    1.9255  1.100      0.844774      0.012136     -0.027969
    6   C      6    1.9255  1.100      1.616675     -1.275404      0.016175
    7   H      7    1.4430  1.100      2.180944     -1.382886     -0.919281
    8   H      8    1.4430  1.100      2.352875     -1.250031      0.827278
    9   H      9    1.4430  1.100      0.945263     -2.127193      0.136466
   10   O     10    1.7500  1.100     -0.387285     -0.013080     -0.098772
   11   O     11    1.7500  1.100     -2.844382      0.006155      0.120152
   12   H     12    1.4430  1.100     -1.841059      0.242082     -0.031031
   13   H     13    1.4430  1.100     -2.890197     -0.976440      0.177840
   14   H     14    1.4430  1.100     -3.407395      0.291844     -0.628727
 ------------------------------------------------------------------------------
 One-electron integrals computed using PRISM.
 PrsmSu:  requested number of processors reduced to:  30 ShMem   1 Linda.
 NBasis=   113 RedAO= T EigKep=  1.28D-04  NBF=   113
 NBsUse=   113 1.00D-06 EigRej= -1.00D+00 NBFU=   113
 Initial guess from the checkpoint file:  "IRC.chk"
 B after Tr=    -0.000127   -0.000123    0.000082
         Rot=    1.000000    0.000037   -0.000029   -0.000018 Ang=   0.01 deg.
 ExpMin= 4.38D-02 ExpMax= 5.48D+03 ExpMxC= 8.25D+02 IAcc=3 IRadAn=         5 AccDes= 0.00D+00
 Harris functional with IExCor=  402 and IRadAn=       5 diagonalized for initial guess.
 HarFok:  IExCor=  402 AccDes= 0.00D+00 IRadAn=         5 IDoV= 1 UseB2=F ITyADJ=14
 ICtDFT=  3500011 ScaDFX=  1.000000  1.000000  1.000000  1.000000
 FoFCou: FMM=F IPFlag=           0 FMFlag=      100000 FMFlg1=           0
         NFxFlg=           0 DoJE=T BraDBF=F KetDBF=T FulRan=T
         wScrn=  0.000000 ICntrl=       500 IOpCl=  0 I1Cent=   200000004 NGrid=           0
         NMat0=    1 NMatS0=      1 NMatT0=    0 NMatD0=    1 NMtDS0=    0 NMtDT0=    0
 Symmetry not used in FoFCou.
 Requested convergence on RMS density matrix=1.00D-08 within 128 cycles.
 Requested convergence on MAX density matrix=1.00D-06.
 Requested convergence on             energy=1.00D-06.
 No special actions if energy rises.
 Inv3:  Mode=1 IEnd=     4538700.
 Iteration    1 A*A^-1 deviation from unit magnitude is 5.11D-15 for   1223.
 Iteration    1 A*A^-1 deviation from orthogonality  is 2.33D-15 for   1219    322.
 Iteration    1 A^-1*A deviation from unit magnitude is 5.11D-15 for   1223.
 Iteration    1 A^-1*A deviation from orthogonality  is 1.40D-15 for   1194    630.
 Error on total polarization charges =  0.00773
 SCF Done:  E(RB3LYP) =  -270.022436614     A.U. after    8 cycles
            NFock=  8  Conv=0.34D-08     -V/T= 2.0100
 DoSCS=F DFT=T ScalE2(SS,OS)=  1.000000  1.000000
 Range of M.O.s used for correlation:     1   113
 NBasis=   113 NAE=    21 NBE=    21 NFC=     0 NFV=     0
 NROrb=    113 NOA=    21 NOB=    21 NVA=    92 NVB=    92

 **** Warning!!: The largest alpha MO coefficient is  0.28798660D+02

 Symmetrizing basis deriv contribution to polar:
 IMax=3 JMax=2 DiffMx= 0.00D+00
 PrsmSu:  requested number of processors reduced to:  30 ShMem   1 Linda.
 D1PCM: PCM CHGder 1st derivatives, ID1Alg=3 FixD1E=F DoIter=F DoCFld=F I1PDM=0.
 CoulSu:  requested number of processors reduced to:  29 ShMem   1 Linda.
 CoulSu:  requested number of processors reduced to:  30 ShMem   1 Linda.
 Calling FoFJK, ICntrl=      2127 FMM=F ISym2X=0 I1Cent= 0 IOpClX= 0 NMat=1 NMatS=1 NMatT=0.
 -------------------------------------------------------------------
 Center     Atomic                   Forces (Hartrees/Bohr)
 Number     Number              X              Y              Z
 -------------------------------------------------------------------
      1        6          -0.000753601    0.000583387   -0.000016872
      2        1          -0.000071015    0.000056562    0.000000531
      3        1          -0.000095549    0.000026717   -0.000006011
      4        1          -0.000055415    0.000069045    0.000008494
      5        6           0.000155872   -0.000006556   -0.000016836
      6        6           0.000310458    0.000472656   -0.000062094
      7        1          -0.000001490    0.000038235   -0.000020414
      8        1           0.000049487    0.000051501   -0.000032002
      9        1           0.000031433    0.000038833    0.000016270
     10        8           0.000506863   -0.000878389   -0.000455942
     11        8           0.000579377   -0.003065952    0.001401149
     12        1           0.001082267   -0.002272585    0.000231991
     13        1          -0.002059381    0.003098854    0.000619105
     14        1           0.000320693    0.001787692   -0.001667370
 -------------------------------------------------------------------
 Cartesian Forces:  Max     0.003098854 RMS     0.000987116
 IRC-IRC-IRC-IRC-IRC-IRC-IRC-IRC-IRC-IRC-IRC-IRC-IRC-IRC-IRC-IRC-IRC-IRC
 Error in corrector energy =          -0.0000305809
 Magnitude of corrector gradient =     0.0047633244
 Magnitude of analytic gradient =      0.0063972443
 Magnitude of difference =             0.0060006740
 Angle between gradients (degrees)=   63.0656
 Pt 40 Step number  19 out of a maximum of  20
 Modified Bulirsch-Stoer Extrapolation Cycles:
    EPS =    0.000010000000000
      PEZero:  N= 2 I= 1 D=  5.25D-04 Err=  6.71D-05
      PEZero:  N= 3 I= 2 D=  5.25D-04 Err=  4.47D-05
      PEZero:  N= 3 I= 1 D=  1.05D-03 Err=  1.91D-07
 Maximum DWI energy   std dev =  0.000006554 at pt    -1
 Maximum DWI gradient std dev =  0.335198011 at pt    29
 CORRECTOR INTEGRATION CONVERGENCE:
   Recorrection delta-x convergence threshold:    0.010000
   Delta-x Convergence NOT Met
 IRC-IRC-IRC-IRC-IRC-IRC-IRC-IRC-IRC-IRC-IRC-IRC-IRC-IRC-IRC-IRC-IRC-IRC
                          Input orientation:                          
 ---------------------------------------------------------------------
 Center     Atomic      Atomic             Coordinates (Angstroms)
 Number     Number       Type             X           Y           Z
 ---------------------------------------------------------------------
      1          6           0        1.610438    1.300646    0.011432
      2          1           0        2.077419    1.402629    0.999707
      3          1           0        0.955983    2.154305   -0.172753
      4          1           0        2.425522    1.277547   -0.720533
      5          6           0        0.844784    0.012136   -0.027971
      6          6           0        1.616663   -1.275402    0.016175
      7          1           0        2.180888   -1.382858   -0.919306
      8          1           0        2.352867   -1.250003    0.827260
      9          1           0        0.945203   -2.127140    0.136472
     10          8           0       -0.387305   -0.013061   -0.098772
     11          8           0       -2.844839    0.005531    0.120456
     12          1           0       -1.839317    0.240983   -0.029730
     13          1           0       -2.886276   -0.971594    0.175927
     14          1           0       -3.406080    0.295447   -0.632289
 ---------------------------------------------------------------------
                    Distance matrix (angstroms):
                    1          2          3          4          5
     1  C    0.000000
     2  H    1.097798   0.000000
     3  H    1.091315   1.788099   0.000000
     4  H    1.095751   1.759559   1.796750   0.000000
     5  C    1.499345   2.123436   2.149933   2.140009   0.000000
     6  C    2.576060   2.889892   3.497867   2.777506   1.501832
     7  H    2.897047   3.384118   3.816969   2.679013   2.127360
     8  H    2.778955   2.672464   3.813217   2.964701   2.144465
     9  H    3.493979   3.806094   4.292610   3.810209   2.147936
    10  O    2.393522   3.047244   2.550954   3.156620   1.234379
    11  O    4.640980   5.191684   4.376008   5.486528   3.692613
    12  H    3.609070   4.213073   3.390422   4.443032   2.693840
    13  H    5.040889   5.563615   4.965458   5.837592   3.863950
    14  H    5.156574   5.827352   4.763835   5.914381   4.302943
                    6          7          8          9         10
     6  C    0.000000
     7  H    1.097735   0.000000
     8  H    1.095673   1.760034   0.000000
     9  H    1.091232   1.787607   1.796684   0.000000
    10  O    2.371204   3.024109   3.145808   2.510030   0.000000
    11  O    4.642915   5.316640   5.393708   4.348903   2.467363
    12  H    3.774299   4.426088   4.531212   3.659123   1.475684
    13  H    4.516003   5.200464   5.286811   4.002134   2.690558
    14  H    5.302455   5.840660   6.138744   5.039205   3.081042
                   11         12         13         14
    11  O    0.000000
    12  H    1.043584   0.000000
    13  H    0.979575   1.615165   0.000000
    14  H    0.982685   1.679521   1.590221   0.000000
 Symmetry turned off by external request.
 Stoichiometry    C3H9O2(1+)
 Framework group  C1[X(C3H9O2)]
 Deg. of freedom    36
 Full point group                 C1      NOp   1
 Rotational constants (GHZ):           8.2576119           1.9988041           1.6505482
 Standard basis: 6-31+G(d) (6D, 7F)
   113 basis functions,   196 primitive gaussians,   113 cartesian basis functions
    21 alpha electrons       21 beta electrons
       nuclear repulsion energy       184.4277410693 Hartrees.
 NAtoms=   14 NActive=   14 NUniq=   14 SFac= 1.00D+00 NAtFMM=   60 NAOKFM=F Big=F
 Integral buffers will be    131072 words long.
 Raffenetti 2 integral format.
 Two-electron integral symmetry is turned off.
 Nuclear repulsion after empirical dispersion term =      184.4147420841 Hartrees.
 Force inversion solution in PCM.
 ------------------------------------------------------------------------------
 Polarizable Continuum Model (PCM)
 =================================
 Model                : PCM.
 Atomic radii         : UFF (Universal Force Field).
 Polarization charges : Total charges.
 Charge compensation  : None.
 Solution method      : Matrix inversion.
 Cavity type          : Scaled VdW (van der Waals Surface) (Alpha=1.100).
 Cavity algorithm     : GePol (No added spheres)
                        Default sphere list used, NSphG=   14.
                        Lebedev-Laikov grids with approx.  5.0 points / Ang**2.
                        Smoothing algorithm: York/Karplus (Gamma=1.0000).
                        Polarization charges: spherical gaussians, with
                                              point-specific exponents (IZeta= 3).
                        Self-potential: point-specific (ISelfS= 7).
                        Self-field    : sphere-specific E.n sum rule (ISelfD= 2).
 1st derivatives      : Analytical E(r).r(x)/FMM algorithm (CHGder, D1EAlg=3).
                        Cavity 1st derivative terms included.
 Solvent              : Water, Eps=  78.355300 Eps(inf)=   1.777849
 ------------------------------------------------------------------------------
 Spheres list:
 ISph  on   Nord     Re0    Alpha      Xe            Ye            Ze
    1   C      1    1.9255  1.100      1.610438      1.300646      0.011432
    2   H      2    1.4430  1.100      2.077419      1.402629      0.999707
    3   H      3    1.4430  1.100      0.955983      2.154305     -0.172753
    4   H      4    1.4430  1.100      2.425522      1.277547     -0.720533
    5   C      5    1.9255  1.100      0.844784      0.012136     -0.027971
    6   C      6    1.9255  1.100      1.616663     -1.275402      0.016175
    7   H      7    1.4430  1.100      2.180888     -1.382858     -0.919306
    8   H      8    1.4430  1.100      2.352867     -1.250003      0.827260
    9   H      9    1.4430  1.100      0.945203     -2.127140      0.136472
   10   O     10    1.7500  1.100     -0.387305     -0.013061     -0.098772
   11   O     11    1.7500  1.100     -2.844839      0.005531      0.120456
   12   H     12    1.4430  1.100     -1.839317      0.240983     -0.029730
   13   H     13    1.4430  1.100     -2.886276     -0.971594      0.175927
   14   H     14    1.4430  1.100     -3.406080      0.295447     -0.632289
 ------------------------------------------------------------------------------
 One-electron integrals computed using PRISM.
 PrsmSu:  requested number of processors reduced to:  30 ShMem   1 Linda.
 NBasis=   113 RedAO= T EigKep=  1.28D-04  NBF=   113
 NBsUse=   113 1.00D-06 EigRej= -1.00D+00 NBFU=   113
 Initial guess from the checkpoint file:  "IRC.chk"
 B after Tr=     0.000127    0.000123   -0.000082
         Rot=    1.000000   -0.000037    0.000029    0.000018 Ang=  -0.01 deg.
 ExpMin= 4.38D-02 ExpMax= 5.48D+03 ExpMxC= 8.25D+02 IAcc=3 IRadAn=         5 AccDes= 0.00D+00
 Harris functional with IExCor=  402 and IRadAn=       5 diagonalized for initial guess.
 HarFok:  IExCor=  402 AccDes= 0.00D+00 IRadAn=         5 IDoV= 1 UseB2=F ITyADJ=14
 ICtDFT=  3500011 ScaDFX=  1.000000  1.000000  1.000000  1.000000
 FoFCou: FMM=F IPFlag=           0 FMFlag=      100000 FMFlg1=           0
         NFxFlg=           0 DoJE=T BraDBF=F KetDBF=T FulRan=T
         wScrn=  0.000000 ICntrl=       500 IOpCl=  0 I1Cent=   200000004 NGrid=           0
         NMat0=    1 NMatS0=      1 NMatT0=    0 NMatD0=    1 NMtDS0=    0 NMtDT0=    0
 Symmetry not used in FoFCou.
 Requested convergence on RMS density matrix=1.00D-08 within 128 cycles.
 Requested convergence on MAX density matrix=1.00D-06.
 Requested convergence on             energy=1.00D-06.
 No special actions if energy rises.
 Inv3:  Mode=1 IEnd=     4546083.
 Iteration    1 A*A^-1 deviation from unit magnitude is 3.55D-15 for    847.
 Iteration    1 A*A^-1 deviation from orthogonality  is 4.46D-15 for   1212    210.
 Iteration    1 A^-1*A deviation from unit magnitude is 3.33D-15 for    847.
 Iteration    1 A^-1*A deviation from orthogonality  is 2.12D-15 for   1225    654.
 Error on total polarization charges =  0.00773
 SCF Done:  E(RB3LYP) =  -270.022441440     A.U. after    8 cycles
            NFock=  8  Conv=0.35D-08     -V/T= 2.0100
 DoSCS=F DFT=T ScalE2(SS,OS)=  1.000000  1.000000
 Range of M.O.s used for correlation:     1   113
 NBasis=   113 NAE=    21 NBE=    21 NFC=     0 NFV=     0
 NROrb=    113 NOA=    21 NOB=    21 NVA=    92 NVB=    92

 **** Warning!!: The largest alpha MO coefficient is  0.29080210D+02

 Symmetrizing basis deriv contribution to polar:
 IMax=3 JMax=2 DiffMx= 0.00D+00
 PrsmSu:  requested number of processors reduced to:  30 ShMem   1 Linda.
 D1PCM: PCM CHGder 1st derivatives, ID1Alg=3 FixD1E=F DoIter=F DoCFld=F I1PDM=0.
 CoulSu:  requested number of processors reduced to:  29 ShMem   1 Linda.
 CoulSu:  requested number of processors reduced to:  30 ShMem   1 Linda.
 Calling FoFJK, ICntrl=      2127 FMM=F ISym2X=0 I1Cent= 0 IOpClX= 0 NMat=1 NMatS=1 NMatT=0.
 -------------------------------------------------------------------
 Center     Atomic                   Forces (Hartrees/Bohr)
 Number     Number              X              Y              Z
 -------------------------------------------------------------------
      1        6          -0.000796500    0.000600088   -0.000024467
      2        1          -0.000068374    0.000048646    0.000003958
      3        1          -0.000086827    0.000013335   -0.000003620
      4        1          -0.000049613    0.000061656    0.000006783
      5        6           0.000210084    0.000014048    0.000001930
      6        6           0.000274882    0.000484495   -0.000074862
      7        1           0.000001096    0.000036695   -0.000020773
      8        1           0.000051627    0.000054686   -0.000029523
      9        1           0.000034189    0.000030602    0.000017182
     10        8           0.000398802   -0.000913539   -0.000442130
     11        8           0.000867839    0.003234568   -0.001147019
     12        1           0.000358224   -0.002066507    0.000445034
     13        1          -0.002971278   -0.002082224    0.000671630
     14        1           0.001775848    0.000483450    0.000595878
 -------------------------------------------------------------------
 Cartesian Forces:  Max     0.003234568 RMS     0.000939376
 IRC-IRC-IRC-IRC-IRC-IRC-IRC-IRC-IRC-IRC-IRC-IRC-IRC-IRC-IRC-IRC-IRC-IRC
 Error in corrector energy =          -0.0000282151
 Magnitude of corrector gradient =     0.0047613960
 Magnitude of analytic gradient =      0.0060878537
 Magnitude of difference =             0.0055399964
 Angle between gradients (degrees)=   59.9377
 Pt 40 Step number  20 out of a maximum of  20
 Modified Bulirsch-Stoer Extrapolation Cycles:
    EPS =    0.000010000000000
      PEZero:  N= 2 I= 1 D=  5.25D-04 Err=  3.96D-05
      PEZero:  N= 3 I= 2 D=  5.25D-04 Err=  2.64D-05
      PEZero:  N= 3 I= 1 D=  1.05D-03 Err=  1.38D-07
 Maximum DWI energy   std dev =  0.000001731 at pt    -1
 Maximum DWI gradient std dev =  0.160808268 at pt    59
 CORRECTOR INTEGRATION CONVERGENCE:
   Recorrection delta-x convergence threshold:    0.010000
   Delta-x Convergence NOT Met
 Maximum number of corrector steps exceded.
 Error termination via Lnk1e in /home/duckter/g16/l123.exe at Thu Jun 27 21:35:47 2024.
 Job cpu time:       0 days  4 hours 25 minutes  5.5 seconds.
 Elapsed time:       0 days  0 hours  8 minutes 46.4 seconds.
 File lengths (MBytes):  RWF=     65 Int=      0 D2E=      0 Chk=      7 Scr=      1
