 Entering Link 1 = D:\G09W\l1.exe PID=     30424.
  
 Copyright (c) 1988,1990,1992,1993,1995,1998,2003,2009,2011,
            Gaussian, Inc.  All Rights Reserved.
  
 This is part of the Gaussian(R) 09 program.  It is based on
 the Gaussian(R) 03 system (copyright 2003, Gaussian, Inc.),
 the Gaussian(R) 98 system (copyright 1998, Gaussian, Inc.),
 the Gaussian(R) 94 system (copyright 1995, Gaussian, Inc.),
 the Gaussian 92(TM) system (copyright 1992, Gaussian, Inc.),
 the Gaussian 90(TM) system (copyright 1990, Gaussian, Inc.),
 the Gaussian 88(TM) system (copyright 1988, Gaussian, Inc.),
 the Gaussian 86(TM) system (copyright 1986, Carnegie Mellon
 University), and the Gaussian 82(TM) system (copyright 1983,
 Carnegie Mellon University). Gaussian is a federally registered
 trademark of Gaussian, Inc.
  
 This software contains proprietary and confidential information,
 including trade secrets, belonging to Gaussian, Inc.
  
 This software is provided under written license and may be
 used, copied, transmitted, or stored only in accord with that
 written license.
  
 The following legend is applicable only to US Government
 contracts under FAR:
  
                    RESTRICTED RIGHTS LEGEND
  
 Use, reproduction and disclosure by the US Government is
 subject to restrictions as set forth in subparagraphs (a)
 and (c) of the Commercial Computer Software - Restricted
 Rights clause in FAR 52.227-19.
  
 Gaussian, Inc.
 340 Quinnipiac St., Bldg. 40, Wallingford CT 06492
  
  
 ---------------------------------------------------------------
 Warning -- This program may not be used in any manner that
 competes with the business of Gaussian, Inc. or will provide
 assistance to any competitor of Gaussian, Inc.  The licensee
 of this program is prohibited from giving any competitor of
 Gaussian, Inc. access to this program.  By using this program,
 the user acknowledges that Gaussian, Inc. is engaged in the
 business of creating and licensing software in the field of
 computational chemistry and represents and warrants to the
 licensee that it is not a competitor of Gaussian, Inc. and that
 it will not use this program in any manner prohibited above.
 ---------------------------------------------------------------
  

 Cite this work as:
 Gaussian 09, Revision C.01,
 M. J. Frisch, G. W. Trucks, H. B. Schlegel, G. E. Scuseria, 
 M. A. Robb, J. R. Cheeseman, G. Scalmani, V. Barone, B. Mennucci, 
 G. A. Petersson, H. Nakatsuji, M. Caricato, X. Li, H. P. Hratchian, 
 A. F. Izmaylov, J. Bloino, G. Zheng, J. L. Sonnenberg, M. Hada, 
 M. Ehara, K. Toyota, R. Fukuda, J. Hasegawa, M. Ishida, T. Nakajima, 
 Y. Honda, O. Kitao, H. Nakai, T. Vreven, J. A. Montgomery, Jr., 
 J. E. Peralta, F. Ogliaro, M. Bearpark, J. J. Heyd, E. Brothers, 
 K. N. Kudin, V. N. Staroverov, T. Keith, R. Kobayashi, J. Normand, 
 K. Raghavachari, A. Rendell, J. C. Burant, S. S. Iyengar, J. Tomasi, 
 M. Cossi, N. Rega, J. M. Millam, M. Klene, J. E. Knox, J. B. Cross, 
 V. Bakken, C. Adamo, J. Jaramillo, R. Gomperts, R. E. Stratmann, 
 O. Yazyev, A. J. Austin, R. Cammi, C. Pomelli, J. W. Ochterski, 
 R. L. Martin, K. Morokuma, V. G. Zakrzewski, G. A. Voth, 
 P. Salvador, J. J. Dannenberg, S. Dapprich, A. D. Daniels, 
 O. Farkas, J. B. Foresman, J. V. Ortiz, J. Cioslowski, 
 and D. J. Fox, Gaussian, Inc., Wallingford CT, 2010.
 
 ******************************************
 Gaussian 09:  IA32W-G09RevC.01 23-Sep-2011
                08-Jun-2024 
 ******************************************
 %chk=C:\Users\Crema\Desktop\solv-media.chk
 ----------------------------------------------------------------------
 # b3lyp/6-31+g* opt(TS,calcfc,noeigen,maxcycles=600,maxstep=3) freq sc
 rf IOP(3/124=40)
 ----------------------------------------------------------------------
 1/5=1,6=600,8=3,10=4,11=1,14=-1,18=20,26=3,38=1/1,3;
 2/9=110,12=2,17=6,18=5,40=1/2;
 3/5=1,6=6,7=11,11=2,16=1,25=1,30=1,70=2201,71=2,72=1,74=-5,124=40/1,2,3;
 4//1;
 5/5=2,38=5/2;
 8/6=4,10=90,11=11/1;
 11/6=1,8=1,9=11,15=111,16=1/1,2,10;
 10/6=1,7=6,13=1/2;
 6/7=2,8=2,9=2,10=2,28=1/1;
 7/10=1,18=20,25=1/1,2,3,16;
 1/5=1,6=600,8=3,10=4,11=1,14=-1,18=20/3(2);
 2/9=110/2;
 99//99;
 2/9=110/2;
 3/5=1,6=6,7=11,11=2,16=1,25=1,30=1,70=2205,71=1,74=-5,124=40/1,2,3;
 4/5=5,16=3/1;
 5/5=2,38=5/2;
 7//1,2,3,16;
 1/5=1,6=600,8=3,11=1,14=-1,18=20/3(-5);
 2/9=110/2;
 6/7=2,8=2,9=2,10=2,19=2,28=1/1;
 99/9=1/99;
 -------------------
 Title Card Required
 -------------------
 Charge =  1 Multiplicity = 1
 Symbolic Z-Matrix:
 C                    -1.5413   -1.29974   0.00648 
 H                    -1.98796  -1.42906   1.00356 
 H                    -0.88142  -2.14487  -0.20594 
 H                    -2.37515  -1.27557  -0.70644 
 C                    -0.79642   0.00221  -0.01557 
 C                    -1.59443   1.27164   0.01487 
 H                    -2.10836   1.38399  -0.9514 
 H                    -2.37954   1.21162   0.77909 
 H                    -0.95733   2.14231   0.18808 
 O                     0.4435    0.02706  -0.05902 
 O                     2.85192   0.00381   0.11166 
 H                     2.21942  -0.76578   0.00729 
 H                     2.18717   0.75195   0.04552 
 H                     3.51273   0.03383  -0.61559 
 

 GradGradGradGradGradGradGradGradGradGradGradGradGradGradGradGradGradGrad
 Berny optimization.
 Initialization pass.
                           ----------------------------
                           !    Initial Parameters    !
                           ! (Angstroms and Degrees)  !
 --------------------------                            --------------------------
 ! Name  Definition              Value          Derivative Info.                !
 --------------------------------------------------------------------------------
 ! R1    R(1,2)                  1.1002         calculate D2E/DX2 analytically  !
 ! R2    R(1,3)                  1.0931         calculate D2E/DX2 analytically  !
 ! R3    R(1,4)                  1.0973         calculate D2E/DX2 analytically  !
 ! R4    R(1,5)                  1.5001         calculate D2E/DX2 analytically  !
 ! R5    R(5,6)                  1.4997         calculate D2E/DX2 analytically  !
 ! R6    R(5,10)                 1.2409         calculate D2E/DX2 analytically  !
 ! R7    R(6,7)                  1.1002         calculate D2E/DX2 analytically  !
 ! R8    R(6,8)                  1.0973         calculate D2E/DX2 analytically  !
 ! R9    R(6,9)                  1.0927         calculate D2E/DX2 analytically  !
 ! R10   R(10,11)                2.4146         calculate D2E/DX2 analytically  !
 ! R11   R(10,12)                1.946          calculate D2E/DX2 analytically  !
 ! R12   R(10,13)                1.8912         calculate D2E/DX2 analytically  !
 ! R13   R(11,12)                1.0016         calculate D2E/DX2 analytically  !
 ! R14   R(11,13)                1.003          calculate D2E/DX2 analytically  !
 ! R15   R(11,14)                0.9831         calculate D2E/DX2 analytically  !
 ! A1    A(2,1,3)              109.2887         calculate D2E/DX2 analytically  !
 ! A2    A(2,1,4)              106.4327         calculate D2E/DX2 analytically  !
 ! A3    A(2,1,5)              108.4775         calculate D2E/DX2 analytically  !
 ! A4    A(3,1,4)              110.4574         calculate D2E/DX2 analytically  !
 ! A5    A(3,1,5)              111.6171         calculate D2E/DX2 analytically  !
 ! A6    A(4,1,5)              110.4049         calculate D2E/DX2 analytically  !
 ! A7    A(1,5,6)              118.0409         calculate D2E/DX2 analytically  !
 ! A8    A(1,5,10)             120.933          calculate D2E/DX2 analytically  !
 ! A9    A(6,5,10)             121.026          calculate D2E/DX2 analytically  !
 ! A10   A(5,6,7)              108.4919         calculate D2E/DX2 analytically  !
 ! A11   A(5,6,8)              110.3997         calculate D2E/DX2 analytically  !
 ! A12   A(5,6,9)              111.5571         calculate D2E/DX2 analytically  !
 ! A13   A(7,6,8)              106.4414         calculate D2E/DX2 analytically  !
 ! A14   A(7,6,9)              109.2814         calculate D2E/DX2 analytically  !
 ! A15   A(8,6,9)              110.5094         calculate D2E/DX2 analytically  !
 ! A16   A(5,10,12)            154.4902         calculate D2E/DX2 analytically  !
 ! A17   A(5,10,13)            157.9661         calculate D2E/DX2 analytically  !
 ! A18   A(12,10,13)            46.5974         calculate D2E/DX2 analytically  !
 ! A19   A(10,11,14)           128.161          calculate D2E/DX2 analytically  !
 ! A20   A(12,11,13)            98.4951         calculate D2E/DX2 analytically  !
 ! A21   A(12,11,14)           111.7673         calculate D2E/DX2 analytically  !
 ! A22   A(13,11,14)           111.9585         calculate D2E/DX2 analytically  !
 ! A23   L(5,10,11,3,-1)       178.6487         calculate D2E/DX2 analytically  !
 ! A24   L(5,10,11,3,-2)       187.2219         calculate D2E/DX2 analytically  !
 ! D1    D(2,1,5,6)            -70.1742         calculate D2E/DX2 analytically  !
 ! D2    D(2,1,5,10)           109.8935         calculate D2E/DX2 analytically  !
 ! D3    D(3,1,5,6)            169.3583         calculate D2E/DX2 analytically  !
 ! D4    D(3,1,5,10)           -10.5741         calculate D2E/DX2 analytically  !
 ! D5    D(4,1,5,6)             46.0918         calculate D2E/DX2 analytically  !
 ! D6    D(4,1,5,10)          -133.8406         calculate D2E/DX2 analytically  !
 ! D7    D(1,5,6,7)            -70.493          calculate D2E/DX2 analytically  !
 ! D8    D(1,5,6,8)             45.7889         calculate D2E/DX2 analytically  !
 ! D9    D(1,5,6,9)            169.0763         calculate D2E/DX2 analytically  !
 ! D10   D(10,5,6,7)           109.4394         calculate D2E/DX2 analytically  !
 ! D11   D(10,5,6,8)          -134.2787         calculate D2E/DX2 analytically  !
 ! D12   D(10,5,6,9)           -10.9914         calculate D2E/DX2 analytically  !
 ! D13   D(1,5,10,12)           -8.9973         calculate D2E/DX2 analytically  !
 ! D14   D(1,5,10,13)         -166.688          calculate D2E/DX2 analytically  !
 ! D15   D(6,5,10,12)          171.0724         calculate D2E/DX2 analytically  !
 ! D16   D(6,5,10,13)           13.3817         calculate D2E/DX2 analytically  !
 ! D17   D(1,5,11,14)           94.3831         calculate D2E/DX2 analytically  !
 ! D18   D(6,5,11,14)          -90.355          calculate D2E/DX2 analytically  !
 --------------------------------------------------------------------------------
 Trust Radius=3.00D-02 FncErr=1.00D-07 GrdErr=1.00D-06
 Number of steps in this run=    100 maximum allowed number of steps=    100.
 Search for a saddle point of order  1.
 GradGradGradGradGradGradGradGradGradGradGradGradGradGradGradGradGradGrad

                          Input orientation:                          
 ---------------------------------------------------------------------
 Center     Atomic      Atomic             Coordinates (Angstroms)
 Number     Number       Type             X           Y           Z
 ---------------------------------------------------------------------
      1          6           0       -1.541303   -1.299736    0.006483
      2          1           0       -1.987960   -1.429060    1.003560
      3          1           0       -0.881417   -2.144867   -0.205936
      4          1           0       -2.375149   -1.275571   -0.706439
      5          6           0       -0.796422    0.002205   -0.015571
      6          6           0       -1.594430    1.271636    0.014874
      7          1           0       -2.108361    1.383993   -0.951401
      8          1           0       -2.379543    1.211623    0.779085
      9          1           0       -0.957330    2.142308    0.188084
     10          8           0        0.443498    0.027055   -0.059021
     11          8           0        2.851923    0.003813    0.111661
     12          1           0        2.219424   -0.765777    0.007285
     13          1           0        2.187173    0.751953    0.045516
     14          1           0        3.512729    0.033830   -0.615593
 ---------------------------------------------------------------------
                    Distance matrix (angstroms):
                    1          2          3          4          5
     1  C    0.000000
     2  H    1.100177   0.000000
     3  H    1.093077   1.788770   0.000000
     4  H    1.097334   1.759992   1.799282   0.000000
     5  C    1.500128   2.122948   2.157170   2.145318   0.000000
     6  C    2.571934   2.902779   3.497090   2.760087   1.499733
     7  H    2.905426   3.427774   3.809719   2.684113   2.122805
     8  H    2.757986   2.678980   3.805348   2.897056   2.144864
     9  H    3.495951   3.805505   4.305913   3.806873   2.155785
    10  O    2.388326   3.026770   2.548378   3.171869   1.240930
    11  O    4.583747   5.125727   4.319204   5.443197   3.650563
    12  H    3.798444   4.374310   3.400378   4.677541   3.112177
    13  H    4.255876   4.806912   4.227415   5.048868   3.076962
    14  H    5.263897   5.917709   4.921693   6.032403   4.350840
                    6          7          8          9         10
     6  C    0.000000
     7  H    1.100198   0.000000
     8  H    1.097280   1.760066   0.000000
     9  H    1.092688   1.788390   1.799485   0.000000
    10  O    2.389057   3.024832   3.174143   2.549054   0.000000
    11  O    4.624586   5.257320   5.410406   4.369143   2.414577
    12  H    4.323956   4.926491   5.065203   4.310616   1.945994
    13  H    3.817267   4.454765   4.648044   3.441121   1.891245
    14  H    5.292705   5.790713   6.168565   5.007295   3.119294
                   11         12         13         14
    11  O    0.000000
    12  H    1.001608   0.000000
    13  H    1.002986   1.518554   0.000000
    14  H    0.983089   1.643163   1.646167   0.000000
 Stoichiometry    C3H9O2(1+)
 Framework group  C1[X(C3H9O2)]
 Deg. of freedom    36
 Full point group                 C1      NOp   1
 Largest Abelian subgroup         C1      NOp   1
 Largest concise Abelian subgroup C1      NOp   1
                         Standard orientation:                         
 ---------------------------------------------------------------------
 Center     Atomic      Atomic             Coordinates (Angstroms)
 Number     Number       Type             X           Y           Z
 ---------------------------------------------------------------------
      1          6           0        1.541303    1.299736    0.006483
      2          1           0        1.987960    1.429060    1.003560
      3          1           0        0.881417    2.144867   -0.205936
      4          1           0        2.375149    1.275571   -0.706439
      5          6           0        0.796422   -0.002205   -0.015571
      6          6           0        1.594430   -1.271636    0.014874
      7          1           0        2.108361   -1.383993   -0.951401
      8          1           0        2.379543   -1.211623    0.779085
      9          1           0        0.957330   -2.142308    0.188084
     10          8           0       -0.443498   -0.027055   -0.059021
     11          8           0       -2.851923   -0.003813    0.111661
     12          1           0       -2.219424    0.765777    0.007285
     13          1           0       -2.187173   -0.751953    0.045516
     14          1           0       -3.512729   -0.033829   -0.615593
 ---------------------------------------------------------------------
 Rotational constants (GHZ):      8.2898771      2.0434679      1.6801643
 Standard basis: 6-31+G(d) (6D, 7F)
 There are   113 symmetry adapted basis functions of A   symmetry.
 Integral buffers will be    262144 words long.
 Raffenetti 2 integral format.
 Two-electron integral symmetry is turned on.
   113 basis functions,   196 primitive gaussians,   113 cartesian basis functions
    21 alpha electrons       21 beta electrons
       nuclear repulsion energy       184.9218293320 Hartrees.
 NAtoms=   14 NActive=   14 NUniq=   14 SFac= 1.00D+00 NAtFMM=   60 NAOKFM=F Big=F
 Nuclear repulsion after empirical dispersion term =      184.9143987884 Hartrees.
 ------------------------------------------------------------------------------
 Polarizable Continuum Model (PCM)
 =================================
 Model                : PCM.
 Atomic radii         : UFF (Universal Force Field).
 Polarization charges : Total charges.
 Charge compensation  : None.
 Solution method      : Matrix inversion.
 Cavity type          : Scaled VdW (van der Waals Surface) (Alpha=1.100).
 Cavity algorithm     : GePol (No added spheres)
                        Default sphere list used, NSphG=   14.
                        Lebedev-Laikov grids with approx.  5.0 points / Ang**2.
                        Smoothing algorithm: Karplus/York (Gamma=1.0000).
                        Polarization charges: spherical gaussians, with
                                              point-specific exponents (IZeta= 3).
                        Self-potential: point-specific (ISelfS= 7).
                        Self-field    : sphere-specific E.n sum rule (ISelfD= 2).
 1st derivatives      : Analytical E(r).r(x)/FMM algorithm (CHGder, D1EAlg=3).
                        Cavity 1st derivative terms included.
 2nd derivatives      : Analytical E(r).r(xy)/FMM algorithm (CHGder, D2EAlg=3).
                        Cavity 2nd derivative terms included.
 Solvent              : Water, Eps=  78.355300 Eps(inf)=   1.777849
 ------------------------------------------------------------------------------
 Spheres list:
 ISph  on   Nord    Re0     Alpha      Xe            Ye            Ze
    1   C      1    1.926   1.100      1.541303      1.299736      0.006483
    2   H      2    1.443   1.100      1.987960      1.429060      1.003560
    3   H      3    1.443   1.100      0.881417      2.144867     -0.205936
    4   H      4    1.443   1.100      2.375149      1.275571     -0.706439
    5   C      5    1.926   1.100      0.796422     -0.002205     -0.015571
    6   C      6    1.926   1.100      1.594430     -1.271636      0.014874
    7   H      7    1.443   1.100      2.108361     -1.383993     -0.951401
    8   H      8    1.443   1.100      2.379543     -1.211623      0.779085
    9   H      9    1.443   1.100      0.957330     -2.142308      0.188084
   10   O     10    1.750   1.100     -0.443498     -0.027055     -0.059021
   11   O     11    1.750   1.100     -2.851923     -0.003813      0.111661
   12   H     12    1.443   1.100     -2.219424      0.765777      0.007285
   13   H     13    1.443   1.100     -2.187173     -0.751953      0.045516
   14   H     14    1.443   1.100     -3.512729     -0.033829     -0.615593
 ------------------------------------------------------------------------------
 One-electron integrals computed using PRISM.
 NBasis=   113 RedAO= T  NBF=   113
 NBsUse=   113 1.00D-06 NBFU=   113
 Harris functional with IExCor=  402 diagonalized for initial guess.
 ExpMin= 4.38D-02 ExpMax= 5.48D+03 ExpMxC= 8.25D+02 IAcc=2 IRadAn=         4 AccDes= 0.00D+00
 HarFok:  IExCor=  402 AccDes= 0.00D+00 IRadAn=         4 IDoV= 1
 ScaDFX=  1.000000  1.000000  1.000000  1.000000
 FoFCou: FMM=F IPFlag=           0 FMFlag=      100000 FMFlg1=           0
         NFxFlg=           0 DoJE=T BraDBF=F KetDBF=T FulRan=T
         Omega=  0.000000  0.000000  1.000000  0.000000  0.000000 ICntrl=     500 IOpCl=  0
         NMat0=    1 NMatS0=    1 NMatT0=    0 NMatD0=    1 NMtDS0=    0 NMtDT0=    0
         I1Cent=           4 NGrid=           0.
 Petite list used in FoFCou.
 Initial guess orbital symmetries:
       Occupied  (A) (A) (A) (A) (A) (A) (A) (A) (A) (A) (A) (A)
                 (A) (A) (A) (A) (A) (A) (A) (A) (A)
       Virtual   (A) (A) (A) (A) (A) (A) (A) (A) (A) (A) (A) (A)
                 (A) (A) (A) (A) (A) (A) (A) (A) (A) (A) (A) (A)
                 (A) (A) (A) (A) (A) (A) (A) (A) (A) (A) (A) (A)
                 (A) (A) (A) (A) (A) (A) (A) (A) (A) (A) (A) (A)
                 (A) (A) (A) (A) (A) (A) (A) (A) (A) (A) (A) (A)
                 (A) (A) (A) (A) (A) (A) (A) (A) (A) (A) (A) (A)
                 (A) (A) (A) (A) (A) (A) (A) (A) (A) (A) (A) (A)
                 (A) (A) (A) (A) (A) (A) (A) (A)
 The electronic state of the initial guess is 1-A.
 Requested convergence on RMS density matrix=1.00D-08 within 128 cycles.
 Requested convergence on MAX density matrix=1.00D-06.
 Requested convergence on             energy=1.00D-06.
 No special actions if energy rises.
 Keep R1 ints in memory in canonical form, NReq=25480356.
 Error on total polarization charges =  0.00735
 SCF Done:  E(RB3LYP) =  -270.008152208     A.U. after   11 cycles
             Convg  =    0.3550D-08             -V/T =  2.0101
 Range of M.O.s used for correlation:     1   113
 NBasis=   113 NAE=    21 NBE=    21 NFC=     0 NFV=     0
 NROrb=    113 NOA=    21 NOB=    21 NVA=    92 NVB=    92

 **** Warning!!: The largest alpha MO coefficient is  0.34122722D+02

 Symmetrizing basis deriv contribution to polar:
 IMax=3 JMax=2 DiffMx= 0.00D+00
 G2DrvN: will do    15 centers at a time, making    1 passes doing MaxLOS=2.
 Calling FoFCou, ICntrl=  3107 FMM=F I1Cent=   0 AccDes= 0.00D+00.
 FoFDir/FoFCou used for L=0 through L=2.
 G2PCM: DoFxE=T DoFxN=T DoGrad=T DoPD/DQ/DG=FFF NFrqRd=   0 IEInf=0 DoCFld=F IF1Alg=4.
 End of G2Drv Frequency-dependent properties file   721 does not exist.
 End of G2Drv Frequency-dependent properties file   722 does not exist.
          IDoAtm=11111111111111
 NEqPCM:  Using equilibrium solvation (IEInf=0, Eps=  78.3553, EpsInf=   1.7778)
          Differentiating once with respect to nuclear coordinates.
          Keep R1 ints in memory in canonical form, NReq=21569159.
          There are    45 degrees of freedom in the 1st order CPHF.  IDoFFX=5.
     39 vectors produced by pass  0 Test12= 4.29D-11 2.22D-07 XBig12= 1.80D-01 1.40D-01.
 AX will form    39 AO Fock derivatives at one time.
     39 vectors produced by pass  1 Test12= 4.29D-11 2.22D-07 XBig12= 3.10D-02 6.32D-02.
     39 vectors produced by pass  2 Test12= 4.29D-11 2.22D-07 XBig12= 4.64D-05 1.29D-03.
     39 vectors produced by pass  3 Test12= 4.29D-11 2.22D-07 XBig12= 1.02D-07 5.48D-05.
     14 vectors produced by pass  4 Test12= 4.29D-11 2.22D-07 XBig12= 9.40D-11 2.21D-06.
 Inverted reduced A of dimension   170 with in-core refinement.
 End of Minotr Frequency-dependent properties file   721 does not exist.
 End of Minotr Frequency-dependent properties file   722 does not exist.

 **********************************************************************

            Population analysis using the SCF density.

 **********************************************************************

 Orbital symmetries:
       Occupied  (A) (A) (A) (A) (A) (A) (A) (A) (A) (A) (A) (A)
                 (A) (A) (A) (A) (A) (A) (A) (A) (A)
       Virtual   (A) (A) (A) (A) (A) (A) (A) (A) (A) (A) (A) (A)
                 (A) (A) (A) (A) (A) (A) (A) (A) (A) (A) (A) (A)
                 (A) (A) (A) (A) (A) (A) (A) (A) (A) (A) (A) (A)
                 (A) (A) (A) (A) (A) (A) (A) (A) (A) (A) (A) (A)
                 (A) (A) (A) (A) (A) (A) (A) (A) (A) (A) (A) (A)
                 (A) (A) (A) (A) (A) (A) (A) (A) (A) (A) (A) (A)
                 (A) (A) (A) (A) (A) (A) (A) (A) (A) (A) (A) (A)
                 (A) (A) (A) (A) (A) (A) (A) (A)
 The electronic state is 1-A.
 Alpha  occ. eigenvalues --  -19.33006 -19.18922 -10.32004 -10.20445 -10.20438
 Alpha  occ. eigenvalues --   -1.19501  -1.07638  -0.79410  -0.72713  -0.69392
 Alpha  occ. eigenvalues --   -0.64983  -0.56464  -0.50642  -0.48242  -0.47937
 Alpha  occ. eigenvalues --   -0.47707  -0.41750  -0.41273  -0.39658  -0.38049
 Alpha  occ. eigenvalues --   -0.29783
 Alpha virt. eigenvalues --   -0.05653  -0.02470   0.01479   0.02942   0.04927
 Alpha virt. eigenvalues --    0.05109   0.05453   0.06175   0.08229   0.08402
 Alpha virt. eigenvalues --    0.09057   0.09716   0.10567   0.12849   0.13948
 Alpha virt. eigenvalues --    0.14234   0.15636   0.17605   0.19157   0.19634
 Alpha virt. eigenvalues --    0.20113   0.21631   0.23251   0.23968   0.24388
 Alpha virt. eigenvalues --    0.27660   0.29479   0.30206   0.33953   0.35610
 Alpha virt. eigenvalues --    0.36469   0.39025   0.43796   0.59246   0.64081
 Alpha virt. eigenvalues --    0.65384   0.65903   0.67132   0.70374   0.75554
 Alpha virt. eigenvalues --    0.78573   0.81340   0.87076   0.91854   0.92899
 Alpha virt. eigenvalues --    0.95482   0.96152   1.00196   1.00648   1.01935
 Alpha virt. eigenvalues --    1.07847   1.08351   1.10891   1.11336   1.16333
 Alpha virt. eigenvalues --    1.21419   1.23042   1.23664   1.30382   1.38012
 Alpha virt. eigenvalues --    1.39976   1.41739   1.44142   1.54912   1.59996
 Alpha virt. eigenvalues --    1.72172   1.74999   1.77203   1.77994   1.78891
 Alpha virt. eigenvalues --    1.91941   1.92070   1.95638   2.08150   2.12316
 Alpha virt. eigenvalues --    2.15808   2.19736   2.22734   2.37003   2.39744
 Alpha virt. eigenvalues --    2.42197   2.48951   2.50590   2.55528   2.69332
 Alpha virt. eigenvalues --    2.94693   3.05266   3.71447   4.19084   4.25812
 Alpha virt. eigenvalues --    4.29032   4.51857
          Condensed to atoms (all electrons):
              1          2          3          4          5          6
     1  C    6.074701   0.360987   0.378013   0.369085   0.068933  -0.397604
     2  H    0.360987   0.449878  -0.019691  -0.024114  -0.025120  -0.003752
     3  H    0.378013  -0.019691   0.457673  -0.021484  -0.041624   0.011569
     4  H    0.369085  -0.024114  -0.021484   0.461235  -0.051137   0.015045
     5  C    0.068933  -0.025120  -0.041624  -0.051137   4.961789   0.077212
     6  C   -0.397604  -0.003752   0.011569   0.015045   0.077212   6.074909
     7  H   -0.004895   0.000184  -0.000085   0.000213  -0.020945   0.358840
     8  H    0.018589   0.000196   0.000082  -0.000728  -0.060701   0.373572
     9  H    0.011422  -0.000086  -0.000113   0.000084  -0.041988   0.378855
    10  O   -0.124276   0.002525  -0.003613   0.005244   0.500809  -0.126758
    11  O    0.015463   0.000094  -0.000474   0.000036  -0.039133   0.015887
    12  H   -0.013503   0.000013   0.000256   0.000006   0.006696   0.007719
    13  H    0.008305  -0.000010  -0.000002  -0.000007   0.007990  -0.015273
    14  H   -0.000743   0.000000   0.000003   0.000000   0.001241  -0.000834
              7          8          9         10         11         12
     1  C   -0.004895   0.018589   0.011422  -0.124276   0.015463  -0.013503
     2  H    0.000184   0.000196  -0.000086   0.002525   0.000094   0.000013
     3  H   -0.000085   0.000082  -0.000113  -0.003613  -0.000474   0.000256
     4  H    0.000213  -0.000728   0.000084   0.005244   0.000036   0.000006
     5  C   -0.020945  -0.060701  -0.041988   0.500809  -0.039133   0.006696
     6  C    0.358840   0.373572   0.378855  -0.126758   0.015887   0.007719
     7  H    0.450139  -0.024060  -0.019667   0.001295   0.000045  -0.000007
     8  H   -0.024060   0.461140  -0.021578   0.007007   0.000063  -0.000006
     9  H   -0.019667  -0.021578   0.457508  -0.003889  -0.000425  -0.000002
    10  O    0.001295   0.007007  -0.003889   8.338073  -0.088845   0.039320
    11  O    0.000045   0.000063  -0.000425  -0.088845   8.329927   0.189742
    12  H   -0.000007  -0.000006  -0.000002   0.039320   0.189742   0.198162
    13  H    0.000011   0.000008   0.000248   0.044453   0.181777  -0.015491
    14  H    0.000000   0.000000   0.000002   0.003046   0.209861  -0.006693
             13         14
     1  C    0.008305  -0.000743
     2  H   -0.000010   0.000000
     3  H   -0.000002   0.000003
     4  H   -0.000007   0.000000
     5  C    0.007990   0.001241
     6  C   -0.015273  -0.000834
     7  H    0.000011   0.000000
     8  H    0.000008   0.000000
     9  H    0.000248   0.000002
    10  O    0.044453   0.003046
    11  O    0.181777   0.209861
    12  H   -0.015491  -0.006693
    13  H    0.197647  -0.006205
    14  H   -0.006205   0.194249
 Mulliken atomic charges:
              1
     1  C   -0.764478
     2  H    0.258897
     3  H    0.239489
     4  H    0.246523
     5  C    0.655977
     6  C   -0.769386
     7  H    0.258932
     8  H    0.246414
     9  H    0.239628
    10  O   -0.594390
    11  O   -0.814017
    12  H    0.593789
    13  H    0.596548
    14  H    0.606073
 Sum of Mulliken atomic charges =   1.00000
 Mulliken charges with hydrogens summed into heavy atoms:
              1
     1  C   -0.019569
     5  C    0.655977
     6  C   -0.024411
    10  O   -0.594390
    11  O    0.982393
 Sum of Mulliken charges with hydrogens summed into heavy atoms =   1.00000
 APT atomic charges:
              1
     1  C   -1.425943
     2  H    0.526224
     3  H    0.402833
     4  H    0.565924
     5  C    0.489059
     6  C   -1.435258
     7  H    0.536287
     8  H    0.558634
     9  H    0.404642
    10  O   -0.580703
    11  O   -0.839283
    12  H    0.396028
    13  H    0.389531
    14  H    1.012024
 Sum of APT charges=   1.00000
 APT Atomic charges with hydrogens summed into heavy atoms:
              1
     1  C    0.069039
     2  H    0.000000
     3  H    0.000000
     4  H    0.000000
     5  C    0.489059
     6  C    0.064305
     7  H    0.000000
     8  H    0.000000
     9  H    0.000000
    10  O   -0.580703
    11  O    0.958300
    12  H    0.000000
    13  H    0.000000
    14  H    0.000000
 Sum of APT charges=   1.00000
 Electronic spatial extent (au):  <R**2>=            695.2003
 Charge=              1.0000 electrons
 Dipole moment (field-independent basis, Debye):
    X=             -6.3136    Y=              0.0538    Z=             -1.5004  Tot=              6.4897
 Quadrupole moment (field-independent basis, Debye-Ang):
   XX=              5.1165   YY=            -25.6722   ZZ=            -29.5480
   XY=              0.0896   XZ=              5.9987   YZ=              0.1395
 Traceless Quadrupole moment (field-independent basis, Debye-Ang):
   XX=             21.8177   YY=             -8.9710   ZZ=            -12.8468
   XY=              0.0896   XZ=              5.9987   YZ=              0.1395
 Octapole moment (field-independent basis, Debye-Ang**2):
  XXX=           -105.2805  YYY=              0.0680  ZZZ=             -1.2101  XYY=             -9.7373
  XXY=             -0.6663  XXZ=            -22.3212  XZZ=             -6.0201  YZZ=              0.0015
  YYZ=             -0.1111  XYZ=              0.6118
 Hexadecapole moment (field-independent basis, Debye-Ang**3):
 XXXX=           -263.2980 YYYY=           -193.7840 ZZZZ=            -42.1946 XXXY=              2.5669
 XXXZ=             80.7563 YYYX=             -0.0721 YYYZ=             -0.9990 ZZZX=              5.3570
 ZZZY=              1.7419 XXYY=           -114.8409 XXZZ=            -90.6427 YYZZ=            -40.7071
 XXYZ=              1.0346 YYXZ=              0.6511 ZZXY=              0.2147
 N-N= 1.849143987884D+02 E-N=-9.917016461992D+02  KE= 2.673101832500D+02
  Exact polarizability:   0.000   0.000   0.000   0.000   0.000   0.000
 Approx polarizability:  76.343   0.362  54.735   1.575   0.554  46.964
 D2PCM: PCM CHGder 2nd derivatives, FixD1E=F FixD2E=F DoIter=F DoCFld=F I1PDM=0
 Calling FoFJK, ICntrl=    100147 FMM=F ISym2X=0 I1Cent= 0 IOpClX= 0 NMat=1 NMatS=1 NMatT=0.
 ***** Axes restored to original set *****
 -------------------------------------------------------------------
 Center     Atomic                   Forces (Hartrees/Bohr)
 Number     Number              X              Y              Z
 -------------------------------------------------------------------
      1        6          -0.002331819   -0.001436514    0.000432477
      2        1           0.000365151    0.000346144   -0.000212499
      3        1           0.000733711    0.000647505   -0.000070427
      4        1           0.000255923    0.000336899   -0.000145375
      5        6           0.011084484    0.000258208   -0.000312546
      6        6          -0.002495562    0.001311918   -0.000477411
      7        1           0.000374649   -0.000288824    0.000219430
      8        1           0.000283375   -0.000301783    0.000108054
      9        1           0.000831209   -0.000359151    0.000096290
     10        8          -0.012797908   -0.000522977    0.000613797
     11        8          -0.007294419   -0.000790715    0.004370167
     12        1           0.006812962    0.001487125   -0.001611974
     13        1           0.005991106   -0.000662637   -0.001852132
     14        1          -0.001812862   -0.000025199   -0.001157851
 -------------------------------------------------------------------
 Cartesian Forces:  Max     0.012797908 RMS     0.003361639

 GradGradGradGradGradGradGradGradGradGradGradGradGradGradGradGradGradGrad
 Berny optimization.
 Internal  Forces:  Max     0.009136883 RMS     0.001757913
 Search for a saddle point.
 Step number   1 out of a maximum of  100
 All quantities printed in internal units (Hartrees-Bohrs-Radians)
 Swaping is turned off.
 Second derivative matrix not updated -- analytic derivatives used.
 ITU=  0
     Eigenvalues ---   -0.01111  -0.00062   0.00019   0.00067   0.00097
     Eigenvalues ---    0.00474   0.00728   0.01170   0.01871   0.05170
     Eigenvalues ---    0.05238   0.05564   0.05748   0.06739   0.10360
     Eigenvalues ---    0.12429   0.12466   0.12656   0.13349   0.13593
     Eigenvalues ---    0.13879   0.14635   0.20784   0.22201   0.31042
     Eigenvalues ---    0.31484   0.33101   0.33271   0.33935   0.34145
     Eigenvalues ---    0.34774   0.34878   0.34923   0.39306   0.47562
     Eigenvalues ---    0.74660
 Eigenvectors required to have negative eigenvalues:
                          R12       R11       A23       D18       D17
   1                   -0.60699   0.59692   0.20949   0.20101   0.17848
                          D14       A16       D16       D13       A17
   1                   -0.16254   0.16166  -0.15699  -0.14933  -0.14876
 RFO step:  Lambda0=4.674656567D-06 Lambda=-1.44398473D-03.
 Linear search not attempted -- option 19 set.
 Maximum step size (   0.030) exceeded in Quadratic search.
    -- Step size scaled by   0.097
 Iteration  1 RMS(Cart)=  0.00816313 RMS(Int)=  0.00007013
 Iteration  2 RMS(Cart)=  0.00007782 RMS(Int)=  0.00001337
 Iteration  3 RMS(Cart)=  0.00000001 RMS(Int)=  0.00001337
 Variable       Old X    -DE/DX   Delta X   Delta X   Delta X     New X
                                 (Linear)    (Quad)   (Total)
    R1        2.07903  -0.00038   0.00000  -0.00015  -0.00015   2.07888
    R2        2.06562  -0.00001   0.00000   0.00004   0.00004   2.06566
    R3        2.07366  -0.00010   0.00000  -0.00007  -0.00007   2.07359
    R4        2.83483   0.00058   0.00000   0.00086   0.00086   2.83569
    R5        2.83408   0.00084   0.00000   0.00089   0.00089   2.83498
    R6        2.34502  -0.00914   0.00000  -0.00161  -0.00161   2.34341
    R7        2.07907  -0.00040   0.00000  -0.00023  -0.00023   2.07885
    R8        2.07356  -0.00011   0.00000  -0.00001  -0.00001   2.07355
    R9        2.06488   0.00021   0.00000   0.00010   0.00010   2.06498
   R10        4.56289  -0.00104   0.00000   0.00865   0.00861   4.57150
   R11        3.67740   0.00247   0.00000   0.01374   0.01376   3.69115
   R12        3.57394   0.00220   0.00000   0.01660   0.01663   3.59056
   R13        1.89276  -0.00404   0.00000  -0.00181  -0.00181   1.89095
   R14        1.89537  -0.00321   0.00000  -0.00188  -0.00187   1.89350
   R15        1.85777  -0.00035   0.00000  -0.00015  -0.00015   1.85762
    A1        1.90745   0.00065   0.00000   0.00033   0.00033   1.90778
    A2        1.85760   0.00049   0.00000   0.00073   0.00073   1.85833
    A3        1.89329  -0.00023   0.00000  -0.00006  -0.00006   1.89323
    A4        1.92785   0.00072   0.00000   0.00032   0.00032   1.92817
    A5        1.94809  -0.00133   0.00000  -0.00114  -0.00114   1.94695
    A6        1.92693  -0.00022   0.00000  -0.00010  -0.00010   1.92683
    A7        2.06020  -0.00050   0.00000  -0.00084  -0.00084   2.05936
    A8        2.11068   0.00025   0.00000   0.00036   0.00036   2.11104
    A9        2.11230   0.00025   0.00000   0.00049   0.00049   2.11279
   A10        1.89354  -0.00016   0.00000   0.00038   0.00038   1.89392
   A11        1.92684  -0.00026   0.00000  -0.00058  -0.00058   1.92626
   A12        1.94704  -0.00118   0.00000  -0.00099  -0.00099   1.94605
   A13        1.85775   0.00045   0.00000   0.00062   0.00062   1.85837
   A14        1.90732   0.00060   0.00000   0.00058   0.00058   1.90790
   A15        1.92875   0.00062   0.00000   0.00009   0.00009   1.92884
   A16        2.69636   0.00106   0.00000   0.00024   0.00020   2.69656
   A17        2.75703   0.00059   0.00000  -0.00029  -0.00030   2.75673
   A18        0.81328  -0.00155   0.00000  -0.00210  -0.00212   0.81116
   A19        2.23683   0.00063   0.00000   0.01250   0.01251   2.24934
   A20        1.71906   0.00177   0.00000   0.00624   0.00620   1.72526
   A21        1.95071  -0.00408   0.00000  -0.00088  -0.00089   1.94982
   A22        1.95405  -0.00387   0.00000  -0.00103  -0.00105   1.95300
   A23        3.11801   0.00014   0.00000   0.00100   0.00104   3.11905
   A24        3.26764   0.00233   0.00000   0.01141   0.01138   3.27902
    D1       -1.22477  -0.00024   0.00000  -0.00051  -0.00050  -1.22527
    D2        1.91800  -0.00003   0.00000  -0.00120  -0.00120   1.91680
    D3        2.95586  -0.00008   0.00000  -0.00017  -0.00017   2.95569
    D4       -0.18455   0.00013   0.00000  -0.00086  -0.00086  -0.18541
    D5        0.80445   0.00010   0.00000   0.00029   0.00029   0.80474
    D6       -2.33596   0.00031   0.00000  -0.00041  -0.00041  -2.33636
    D7       -1.23033  -0.00001   0.00000   0.00119   0.00119  -1.22914
    D8        0.79917   0.00030   0.00000   0.00184   0.00184   0.80101
    D9        2.95094   0.00008   0.00000   0.00084   0.00084   2.95178
   D10        1.91008  -0.00022   0.00000   0.00189   0.00189   1.91197
   D11       -2.34361   0.00008   0.00000   0.00253   0.00253  -2.34107
   D12       -0.19184  -0.00013   0.00000   0.00154   0.00154  -0.19030
   D13       -0.15703   0.00019   0.00000  -0.02079  -0.02079  -0.17782
   D14       -2.90925  -0.00051   0.00000   0.00462   0.00462  -2.90463
   D15        2.98578   0.00041   0.00000  -0.02150  -0.02150   2.96428
   D16        0.23355  -0.00029   0.00000   0.00390   0.00391   0.23746
   D17        1.64730   0.00086   0.00000  -0.00511  -0.00512   1.64217
   D18       -1.57699  -0.00073   0.00000  -0.01374  -0.01373  -1.59073
         Item               Value     Threshold  Converged?
 Maximum Force            0.009137     0.000450     NO 
 RMS     Force            0.001758     0.000300     NO 
 Maximum Displacement     0.029441     0.001800     NO 
 RMS     Displacement     0.008152     0.001200     NO 
 Predicted change in Energy=-1.366843D-04
 GradGradGradGradGradGradGradGradGradGradGradGradGradGradGradGradGradGrad

                          Input orientation:                          
 ---------------------------------------------------------------------
 Center     Atomic      Atomic             Coordinates (Angstroms)
 Number     Number       Type             X           Y           Z
 ---------------------------------------------------------------------
      1          6           0       -1.543870   -1.299877    0.005757
      2          1           0       -1.985073   -1.429631    1.005114
      3          1           0       -0.884403   -2.144366   -0.210599
      4          1           0       -2.381037   -1.275146   -0.703181
      5          6           0       -0.798438    0.002214   -0.019513
      6          6           0       -1.597172    1.271628    0.015496
      7          1           0       -2.117085    1.383869   -0.947452
      8          1           0       -2.377023    1.211020    0.785024
      9          1           0       -0.958647    2.142031    0.185094
     10          8           0        0.440427    0.027086   -0.068394
     11          8           0        2.852461    0.005735    0.115553
     12          1           0        2.224078   -0.765459    0.007412
     13          1           0        2.192562    0.755133    0.032291
     14          1           0        3.526051    0.029169   -0.600014
 ---------------------------------------------------------------------
                    Distance matrix (angstroms):
                    1          2          3          4          5
     1  C    0.000000
     2  H    1.100096   0.000000
     3  H    1.093100   1.788932   0.000000
     4  H    1.097294   1.760377   1.799470   0.000000
     5  C    1.500582   2.123239   2.156782   2.145617   0.000000
     6  C    2.572075   2.902863   3.496880   2.759891   1.500205
     7  H    2.905111   3.427203   3.809317   2.683225   2.123410
     8  H    2.757898   2.678639   3.804970   2.897549   2.144859
     9  H    3.495908   3.805621   4.305262   3.806485   2.155538
    10  O    2.388256   3.026135   2.547666   3.171660   1.240079
    11  O    4.587418   5.123800   4.323593   5.449815   3.653398
    12  H    3.805659   4.376469   3.407575   4.687410   3.118598
    13  H    4.264351   4.813752   4.234832   5.057743   3.084745
    14  H    5.276117   5.922585   4.932342   6.050254   4.363360
                    6          7          8          9         10
     6  C    0.000000
     7  H    1.100079   0.000000
     8  H    1.097275   1.760374   0.000000
     9  H    1.092739   1.788700   1.799580   0.000000
    10  O    2.389087   3.025635   3.173019   2.548461   0.000000
    11  O    4.627281   5.265512   5.408179   4.369569   2.419132
    12  H    4.330328   4.937314   5.067670   4.314488   1.953275
    13  H    3.824805   4.464107   4.653551   3.446295   1.900043
    14  H    5.307539   5.813854   6.177489   5.019272   3.131085
                   11         12         13         14
    11  O    0.000000
    12  H    1.000649   0.000000
    13  H    1.001997   1.521122   0.000000
    14  H    0.983009   1.641807   1.644696   0.000000
 Stoichiometry    C3H9O2(1+)
 Framework group  C1[X(C3H9O2)]
 Deg. of freedom    36
 Full point group                 C1      NOp   1
 Largest Abelian subgroup         C1      NOp   1
 Largest concise Abelian subgroup C1      NOp   1
                         Standard orientation:                         
 ---------------------------------------------------------------------
 Center     Atomic      Atomic             Coordinates (Angstroms)
 Number     Number       Type             X           Y           Z
 ---------------------------------------------------------------------
      1          6           0        1.543035    1.299661    0.008542
      2          1           0        1.983662    1.428909    1.008219
      3          1           0        0.883984    2.144447   -0.207919
      4          1           0        2.380633    1.274905   -0.699886
      5          6           0        0.797185   -0.002172   -0.017657
      6          6           0        1.595473   -1.271865    0.017390
      7          1           0        2.115945   -1.383934   -0.945275
      8          1           0        2.374867   -1.211794    0.787423
      9          1           0        0.956552   -2.142115    0.186280
     10          8           0       -0.441659   -0.026613   -0.067315
     11          8           0       -2.853798   -0.004522    0.115146
     12          1           0       -2.225091    0.766501    0.007671
     13          1           0       -2.194098   -0.754111    0.032024
     14          1           0       -3.526952   -0.027474   -0.600846
 ---------------------------------------------------------------------
 Rotational constants (GHZ):      8.2874383      2.0396858      1.6776642
 Standard basis: 6-31+G(d) (6D, 7F)
 There are   113 symmetry adapted basis functions of A   symmetry.
 Integral buffers will be    262144 words long.
 Raffenetti 2 integral format.
 Two-electron integral symmetry is turned on.
   113 basis functions,   196 primitive gaussians,   113 cartesian basis functions
    21 alpha electrons       21 beta electrons
       nuclear repulsion energy       184.8530484387 Hartrees.
 NAtoms=   14 NActive=   14 NUniq=   14 SFac= 1.00D+00 NAtFMM=   60 NAOKFM=F Big=F
 Nuclear repulsion after empirical dispersion term =      184.8456212894 Hartrees.
 ------------------------------------------------------------------------------
 Polarizable Continuum Model (PCM)
 =================================
 Model                : PCM.
 Atomic radii         : UFF (Universal Force Field).
 Polarization charges : Total charges.
 Charge compensation  : None.
 Solution method      : Matrix inversion.
 Cavity type          : Scaled VdW (van der Waals Surface) (Alpha=1.100).
 Cavity algorithm     : GePol (No added spheres)
                        Default sphere list used, NSphG=   14.
                        Lebedev-Laikov grids with approx.  5.0 points / Ang**2.
                        Smoothing algorithm: Karplus/York (Gamma=1.0000).
                        Polarization charges: spherical gaussians, with
                                              point-specific exponents (IZeta= 3).
                        Self-potential: point-specific (ISelfS= 7).
                        Self-field    : sphere-specific E.n sum rule (ISelfD= 2).
 1st derivatives      : Analytical E(r).r(x)/FMM algorithm (CHGder, D1EAlg=3).
                        Cavity 1st derivative terms included.
 Solvent              : Water, Eps=  78.355300 Eps(inf)=   1.777849
 ------------------------------------------------------------------------------
 Spheres list:
 ISph  on   Nord    Re0     Alpha      Xe            Ye            Ze
    1   C      1    1.926   1.100      1.543035      1.299661      0.008542
    2   H      2    1.443   1.100      1.983662      1.428909      1.008219
    3   H      3    1.443   1.100      0.883984      2.144447     -0.207919
    4   H      4    1.443   1.100      2.380633      1.274905     -0.699886
    5   C      5    1.926   1.100      0.797185     -0.002172     -0.017657
    6   C      6    1.926   1.100      1.595473     -1.271865      0.017390
    7   H      7    1.443   1.100      2.115945     -1.383934     -0.945275
    8   H      8    1.443   1.100      2.374867     -1.211794      0.787423
    9   H      9    1.443   1.100      0.956552     -2.142115      0.186280
   10   O     10    1.750   1.100     -0.441659     -0.026613     -0.067315
   11   O     11    1.750   1.100     -2.853798     -0.004522      0.115146
   12   H     12    1.443   1.100     -2.225091      0.766501      0.007671
   13   H     13    1.443   1.100     -2.194098     -0.754111      0.032024
   14   H     14    1.443   1.100     -3.526952     -0.027474     -0.600846
 ------------------------------------------------------------------------------
 One-electron integrals computed using PRISM.
 NBasis=   113 RedAO= T  NBF=   113
 NBsUse=   113 1.00D-06 NBFU=   113
 Initial guess read from the read-write file.
 B after Tr=     0.000000    0.000000    0.000000
         Rot=    1.000000    0.000000    0.000000    0.000000 Ang=   0.00 deg.
 Initial guess orbital symmetries:
       Occupied  (A) (A) (A) (A) (A) (A) (A) (A) (A) (A) (A) (A)
                 (A) (A) (A) (A) (A) (A) (A) (A) (A)
       Virtual   (A) (A) (A) (A) (A) (A) (A) (A) (A) (A) (A) (A)
                 (A) (A) (A) (A) (A) (A) (A) (A) (A) (A) (A) (A)
                 (A) (A) (A) (A) (A) (A) (A) (A) (A) (A) (A) (A)
                 (A) (A) (A) (A) (A) (A) (A) (A) (A) (A) (A) (A)
                 (A) (A) (A) (A) (A) (A) (A) (A) (A) (A) (A) (A)
                 (A) (A) (A) (A) (A) (A) (A) (A) (A) (A) (A) (A)
                 (A) (A) (A) (A) (A) (A) (A) (A) (A) (A) (A) (A)
                 (A) (A) (A) (A) (A) (A) (A) (A)
 Harris functional with IExCor=  402 diagonalized for initial guess.
 ExpMin= 4.38D-02 ExpMax= 5.48D+03 ExpMxC= 8.25D+02 IAcc=2 IRadAn=         4 AccDes= 0.00D+00
 HarFok:  IExCor=  402 AccDes= 0.00D+00 IRadAn=         4 IDoV= 1
 ScaDFX=  1.000000  1.000000  1.000000  1.000000
 FoFCou: FMM=F IPFlag=           0 FMFlag=      100000 FMFlg1=           0
         NFxFlg=           0 DoJE=T BraDBF=F KetDBF=T FulRan=T
         Omega=  0.000000  0.000000  1.000000  0.000000  0.000000 ICntrl=     500 IOpCl=  0
         NMat0=    1 NMatS0=    1 NMatT0=    0 NMatD0=    1 NMtDS0=    0 NMtDT0=    0
         I1Cent=           4 NGrid=           0.
 Petite list used in FoFCou.
 Requested convergence on RMS density matrix=1.00D-08 within 128 cycles.
 Requested convergence on MAX density matrix=1.00D-06.
 Requested convergence on             energy=1.00D-06.
 No special actions if energy rises.
 Keep R1 ints in memory in canonical form, NReq=25493016.
 Error on total polarization charges =  0.00739
 SCF Done:  E(RB3LYP) =  -270.008288072     A.U. after    9 cycles
             Convg  =    0.2133D-08             -V/T =  2.0101
 D1PCM: PCM CHGder 1st derivatives, ID1Alg=3 FixD1E=F DoIter=F DoCFld=F I1PDM=0.
 Calling FoFJK, ICntrl=      2127 FMM=F ISym2X=0 I1Cent= 0 IOpClX= 0 NMat=1 NMatS=1 NMatT=0.
 ***** Axes restored to original set *****
 -------------------------------------------------------------------
 Center     Atomic                   Forces (Hartrees/Bohr)
 Number     Number              X              Y              Z
 -------------------------------------------------------------------
      1        6          -0.002108903   -0.001294993    0.000386486
      2        1           0.000325621    0.000317134   -0.000194019
      3        1           0.000658509    0.000586880   -0.000062516
      4        1           0.000232071    0.000303458   -0.000135248
      5        6           0.010013383    0.000229659   -0.000284527
      6        6          -0.002259915    0.001183628   -0.000410166
      7        1           0.000341686   -0.000263768    0.000186700
      8        1           0.000256975   -0.000267777    0.000087389
      9        1           0.000751782   -0.000323405    0.000071777
     10        8          -0.011598793   -0.000477595    0.000503246
     11        8          -0.006642642   -0.000649668    0.003866621
     12        1           0.006194116    0.001316408   -0.001361972
     13        1           0.005450934   -0.000628109   -0.001574640
     14        1          -0.001614824   -0.000031850   -0.001079131
 -------------------------------------------------------------------
 Cartesian Forces:  Max     0.011598793 RMS     0.003041027

 GradGradGradGradGradGradGradGradGradGradGradGradGradGradGradGradGradGrad
 Berny optimization.
 Internal  Forces:  Max     0.008245277 RMS     0.001586196
 Search for a saddle point.
 Step number   2 out of a maximum of  100
 All quantities printed in internal units (Hartrees-Bohrs-Radians)
 Swaping is turned off.
 Update second derivatives using D2CorX and points    1    2
 ITU=  0  0
     Eigenvalues ---   -0.01105  -0.00022   0.00040   0.00066   0.00098
     Eigenvalues ---    0.00497   0.00747   0.01157   0.01871   0.05170
     Eigenvalues ---    0.05238   0.05564   0.05748   0.06739   0.10358
     Eigenvalues ---    0.12429   0.12466   0.12656   0.13349   0.13593
     Eigenvalues ---    0.13879   0.14654   0.20783   0.22202   0.31042
     Eigenvalues ---    0.31485   0.33101   0.33271   0.33935   0.34145
     Eigenvalues ---    0.34774   0.34877   0.34923   0.39310   0.47563
     Eigenvalues ---    0.74660
 Eigenvectors required to have negative eigenvalues:
                          R11       R12       A23       D18       D13
   1                    0.60294  -0.59737   0.20787   0.18827  -0.17650
                          D17       D15       D14       A16       D16
   1                    0.17463  -0.17208  -0.15861   0.15780  -0.15419
 RFO step:  Lambda0=7.295967281D-06 Lambda=-1.17430791D-03.
 Linear search not attempted -- option 19 set.
 Maximum step size (   0.030) exceeded in Quadratic search.
    -- Step size scaled by   0.094
 Iteration  1 RMS(Cart)=  0.00784969 RMS(Int)=  0.00006227
 Iteration  2 RMS(Cart)=  0.00006821 RMS(Int)=  0.00002758
 Iteration  3 RMS(Cart)=  0.00000000 RMS(Int)=  0.00002758
 Variable       Old X    -DE/DX   Delta X   Delta X   Delta X     New X
                                 (Linear)    (Quad)   (Total)
    R1        2.07888  -0.00034   0.00000  -0.00013  -0.00013   2.07875
    R2        2.06566  -0.00001   0.00000   0.00004   0.00004   2.06570
    R3        2.07359  -0.00009   0.00000  -0.00006  -0.00006   2.07353
    R4        2.83569   0.00053   0.00000   0.00074   0.00074   2.83643
    R5        2.83498   0.00076   0.00000   0.00080   0.00080   2.83578
    R6        2.34341  -0.00825   0.00000  -0.00140  -0.00140   2.34201
    R7        2.07885  -0.00036   0.00000  -0.00018  -0.00018   2.07867
    R8        2.07355  -0.00010   0.00000  -0.00003  -0.00003   2.07352
    R9        2.06498   0.00019   0.00000   0.00008   0.00008   2.06506
   R10        4.57150  -0.00097   0.00000   0.00932   0.00932   4.58082
   R11        3.69115   0.00228   0.00000   0.01279   0.01281   3.70396
   R12        3.59056   0.00202   0.00000   0.01630   0.01631   3.60687
   R13        1.89095  -0.00362   0.00000  -0.00154  -0.00157   1.88939
   R14        1.89350  -0.00291   0.00000  -0.00175  -0.00178   1.89172
   R15        1.85762  -0.00031   0.00000  -0.00003  -0.00003   1.85758
    A1        1.90778   0.00059   0.00000   0.00032   0.00032   1.90810
    A2        1.85833   0.00045   0.00000   0.00062   0.00062   1.85895
    A3        1.89323  -0.00021   0.00000  -0.00009  -0.00009   1.89314
    A4        1.92817   0.00065   0.00000   0.00029   0.00029   1.92846
    A5        1.94695  -0.00120   0.00000  -0.00097  -0.00097   1.94598
    A6        1.92683  -0.00020   0.00000  -0.00010  -0.00010   1.92673
    A7        2.05936  -0.00045   0.00000  -0.00076  -0.00076   2.05859
    A8        2.11104   0.00024   0.00000   0.00040   0.00040   2.11144
    A9        2.11279   0.00021   0.00000   0.00036   0.00036   2.11315
   A10        1.89392  -0.00015   0.00000   0.00021   0.00021   1.89414
   A11        1.92626  -0.00023   0.00000  -0.00038  -0.00038   1.92588
   A12        1.94605  -0.00107   0.00000  -0.00087  -0.00087   1.94518
   A13        1.85837   0.00041   0.00000   0.00055   0.00055   1.85892
   A14        1.90790   0.00054   0.00000   0.00044   0.00044   1.90833
   A15        1.92884   0.00056   0.00000   0.00013   0.00013   1.92897
   A16        2.69656   0.00097   0.00000  -0.00160  -0.00173   2.69483
   A17        2.75673   0.00053   0.00000  -0.00086  -0.00100   2.75572
   A18        0.81116  -0.00141   0.00000  -0.00222  -0.00224   0.80892
   A19        2.24934   0.00053   0.00000   0.00668   0.00668   2.25602
   A20        1.72526   0.00157   0.00000   0.00524   0.00520   1.73046
   A21        1.94982  -0.00369   0.00000  -0.00139  -0.00137   1.94845
   A22        1.95300  -0.00348   0.00000  -0.00176  -0.00177   1.95123
   A23        3.11905   0.00015   0.00000  -0.00022  -0.00022   3.11883
   A24        3.27902   0.00204   0.00000   0.01607   0.01607   3.29509
    D1       -1.22527  -0.00022   0.00000   0.00027   0.00027  -1.22500
    D2        1.91680  -0.00003   0.00000   0.00004   0.00004   1.91685
    D3        2.95569  -0.00007   0.00000   0.00053   0.00053   2.95622
    D4       -0.18541   0.00012   0.00000   0.00030   0.00030  -0.18512
    D5        0.80474   0.00009   0.00000   0.00091   0.00091   0.80565
    D6       -2.33636   0.00028   0.00000   0.00068   0.00068  -2.33568
    D7       -1.22914  -0.00001   0.00000   0.00094   0.00094  -1.22820
    D8        0.80101   0.00027   0.00000   0.00151   0.00152   0.80252
    D9        2.95178   0.00008   0.00000   0.00080   0.00080   2.95258
   D10        1.91197  -0.00020   0.00000   0.00117   0.00117   1.91314
   D11       -2.34107   0.00008   0.00000   0.00175   0.00175  -2.33933
   D12       -0.19030  -0.00011   0.00000   0.00103   0.00103  -0.18927
   D13       -0.17782   0.00014   0.00000  -0.02781  -0.02780  -0.20562
   D14       -2.90463  -0.00045   0.00000   0.02358   0.02357  -2.88106
   D15        2.96428   0.00034   0.00000  -0.02805  -0.02804   2.93624
   D16        0.23746  -0.00025   0.00000   0.02334   0.02334   0.26080
   D17        1.64217   0.00077   0.00000   0.00064   0.00064   1.64281
   D18       -1.59073  -0.00065   0.00000  -0.01067  -0.01069  -1.60141
         Item               Value     Threshold  Converged?
 Maximum Force            0.008245     0.000450     NO 
 RMS     Force            0.001586     0.000300     NO 
 Maximum Displacement     0.027039     0.001800     NO 
 RMS     Displacement     0.007839     0.001200     NO 
 Predicted change in Energy=-1.110711D-04
 GradGradGradGradGradGradGradGradGradGradGradGradGradGradGradGradGradGrad

                          Input orientation:                          
 ---------------------------------------------------------------------
 Center     Atomic      Atomic             Coordinates (Angstroms)
 Number     Number       Type             X           Y           Z
 ---------------------------------------------------------------------
      1          6           0       -1.545759   -1.299887    0.005137
      2          1           0       -1.980514   -1.429560    1.007253
      3          1           0       -0.886869   -2.143790   -0.215323
      4          1           0       -2.386996   -1.275192   -0.698921
      5          6           0       -0.800212    0.002487   -0.024846
      6          6           0       -1.599788    1.271707    0.015733
      7          1           0       -2.126958    1.383489   -0.943206
      8          1           0       -2.373350    1.210620    0.791525
      9          1           0       -0.959863    2.142063    0.180517
     10          8           0        0.437566    0.027750   -0.081651
     11          8           0        2.853094    0.006128    0.120448
     12          1           0        2.227712   -0.765600    0.006550
     13          1           0        2.198137    0.757157    0.025076
     14          1           0        3.536631    0.026033   -0.585705
 ---------------------------------------------------------------------
                    Distance matrix (angstroms):
                    1          2          3          4          5
     1  C    0.000000
     2  H    1.100029   0.000000
     3  H    1.093120   1.789099   0.000000
     4  H    1.097264   1.760706   1.799643   0.000000
     5  C    1.500972   2.123464   2.156455   2.145862   0.000000
     6  C    2.572183   2.902569   3.496750   2.759913   1.500628
     7  H    2.904764   3.426219   3.809112   2.682513   2.123865
     8  H    2.757890   2.677948   3.804660   2.898426   2.144950
     9  H    3.495862   3.805484   4.304714   3.806278   2.155330
    10  O    2.388249   3.025983   2.547074   3.171251   1.239339
    11  O    4.590085   5.119706   4.326918   5.456345   3.656196
    12  H    3.811109   4.376233   3.413100   4.696053   3.123983
    13  H    4.271836   4.817419   4.241527   5.067352   3.092267
    14  H    5.285627   5.924116   4.940918   6.065918   4.373023
                    6          7          8          9         10
     6  C    0.000000
     7  H    1.099985   0.000000
     8  H    1.097262   1.760649   0.000000
     9  H    1.092784   1.788938   1.799684   0.000000
    10  O    2.389084   3.026068   3.172202   2.547913   0.000000
    11  O    4.630422   5.275358   5.405263   4.370866   2.424064
    12  H    4.335950   4.948108   5.068669   4.318033   1.960053
    13  H    3.832634   4.476193   4.657421   3.451825   1.908673
    14  H    5.319420   5.834958   6.182870   5.028234   3.139789
                   11         12         13         14
    11  O    0.000000
    12  H    0.999820   0.000000
    13  H    1.001054   1.523156   0.000000
    14  H    0.982991   1.640341   1.642913   0.000000
 Stoichiometry    C3H9O2(1+)
 Framework group  C1[X(C3H9O2)]
 Deg. of freedom    36
 Full point group                 C1      NOp   1
 Largest Abelian subgroup         C1      NOp   1
 Largest concise Abelian subgroup C1      NOp   1
                         Standard orientation:                         
 ---------------------------------------------------------------------
 Center     Atomic      Atomic             Coordinates (Angstroms)
 Number     Number       Type             X           Y           Z
 ---------------------------------------------------------------------
      1          6           0        1.543749    1.299966    0.011470
      2          1           0        1.977106    1.428950    1.014280
      3          1           0        0.885409    2.144178   -0.209453
      4          1           0        2.385985    1.275436   -0.691398
      5          6           0        0.797885   -0.002183   -0.020318
      6          6           0        1.597049   -1.271648    0.020684
      7          1           0        2.125559   -1.383033   -0.937563
      8          1           0        2.369519   -1.211216    0.797616
      9          1           0        0.956649   -2.141920    0.184059
     10          8           0       -0.439818   -0.027070   -0.078906
     11          8           0       -2.855627   -0.004890    0.119751
     12          1           0       -2.229869    0.766728    0.007185
     13          1           0       -2.200742   -0.756047    0.024889
     14          1           0       -3.538158   -0.024205   -0.587390
 ---------------------------------------------------------------------
 Rotational constants (GHZ):      8.2826533      2.0361968      1.6754763
 Standard basis: 6-31+G(d) (6D, 7F)
 There are   113 symmetry adapted basis functions of A   symmetry.
 Integral buffers will be    262144 words long.
 Raffenetti 2 integral format.
 Two-electron integral symmetry is turned on.
   113 basis functions,   196 primitive gaussians,   113 cartesian basis functions
    21 alpha electrons       21 beta electrons
       nuclear repulsion energy       184.7863731970 Hartrees.
 NAtoms=   14 NActive=   14 NUniq=   14 SFac= 1.00D+00 NAtFMM=   60 NAOKFM=F Big=F
 Nuclear repulsion after empirical dispersion term =      184.7789476817 Hartrees.
 ------------------------------------------------------------------------------
 Polarizable Continuum Model (PCM)
 =================================
 Model                : PCM.
 Atomic radii         : UFF (Universal Force Field).
 Polarization charges : Total charges.
 Charge compensation  : None.
 Solution method      : Matrix inversion.
 Cavity type          : Scaled VdW (van der Waals Surface) (Alpha=1.100).
 Cavity algorithm     : GePol (No added spheres)
                        Default sphere list used, NSphG=   14.
                        Lebedev-Laikov grids with approx.  5.0 points / Ang**2.
                        Smoothing algorithm: Karplus/York (Gamma=1.0000).
                        Polarization charges: spherical gaussians, with
                                              point-specific exponents (IZeta= 3).
                        Self-potential: point-specific (ISelfS= 7).
                        Self-field    : sphere-specific E.n sum rule (ISelfD= 2).
 1st derivatives      : Analytical E(r).r(x)/FMM algorithm (CHGder, D1EAlg=3).
                        Cavity 1st derivative terms included.
 Solvent              : Water, Eps=  78.355300 Eps(inf)=   1.777849
 ------------------------------------------------------------------------------
 Spheres list:
 ISph  on   Nord    Re0     Alpha      Xe            Ye            Ze
    1   C      1    1.926   1.100      1.543749      1.299966      0.011470
    2   H      2    1.443   1.100      1.977106      1.428950      1.014280
    3   H      3    1.443   1.100      0.885409      2.144178     -0.209453
    4   H      4    1.443   1.100      2.385985      1.275436     -0.691398
    5   C      5    1.926   1.100      0.797885     -0.002183     -0.020318
    6   C      6    1.926   1.100      1.597049     -1.271648      0.020684
    7   H      7    1.443   1.100      2.125559     -1.383033     -0.937563
    8   H      8    1.443   1.100      2.369519     -1.211216      0.797616
    9   H      9    1.443   1.100      0.956649     -2.141920      0.184059
   10   O     10    1.750   1.100     -0.439818     -0.027070     -0.078906
   11   O     11    1.750   1.100     -2.855627     -0.004890      0.119751
   12   H     12    1.443   1.100     -2.229869      0.766728      0.007185
   13   H     13    1.443   1.100     -2.200742     -0.756047      0.024889
   14   H     14    1.443   1.100     -3.538158     -0.024205     -0.587390
 ------------------------------------------------------------------------------
 One-electron integrals computed using PRISM.
 NBasis=   113 RedAO= T  NBF=   113
 NBsUse=   113 1.00D-06 NBFU=   113
 Initial guess read from the read-write file.
 B after Tr=     0.000000    0.000000    0.000000
         Rot=    1.000000    0.000000    0.000000    0.000000 Ang=   0.00 deg.
 Initial guess orbital symmetries:
       Occupied  (A) (A) (A) (A) (A) (A) (A) (A) (A) (A) (A) (A)
                 (A) (A) (A) (A) (A) (A) (A) (A) (A)
       Virtual   (A) (A) (A) (A) (A) (A) (A) (A) (A) (A) (A) (A)
                 (A) (A) (A) (A) (A) (A) (A) (A) (A) (A) (A) (A)
                 (A) (A) (A) (A) (A) (A) (A) (A) (A) (A) (A) (A)
                 (A) (A) (A) (A) (A) (A) (A) (A) (A) (A) (A) (A)
                 (A) (A) (A) (A) (A) (A) (A) (A) (A) (A) (A) (A)
                 (A) (A) (A) (A) (A) (A) (A) (A) (A) (A) (A) (A)
                 (A) (A) (A) (A) (A) (A) (A) (A) (A) (A) (A) (A)
                 (A) (A) (A) (A) (A) (A) (A) (A)
 Harris functional with IExCor=  402 diagonalized for initial guess.
 ExpMin= 4.38D-02 ExpMax= 5.48D+03 ExpMxC= 8.25D+02 IAcc=2 IRadAn=         4 AccDes= 0.00D+00
 HarFok:  IExCor=  402 AccDes= 0.00D+00 IRadAn=         4 IDoV= 1
 ScaDFX=  1.000000  1.000000  1.000000  1.000000
 FoFCou: FMM=F IPFlag=           0 FMFlag=      100000 FMFlg1=           0
         NFxFlg=           0 DoJE=T BraDBF=F KetDBF=T FulRan=T
         Omega=  0.000000  0.000000  1.000000  0.000000  0.000000 ICntrl=     500 IOpCl=  0
         NMat0=    1 NMatS0=    1 NMatT0=    0 NMatD0=    1 NMtDS0=    0 NMtDT0=    0
         I1Cent=           4 NGrid=           0.
 Petite list used in FoFCou.
 Requested convergence on RMS density matrix=1.00D-08 within 128 cycles.
 Requested convergence on MAX density matrix=1.00D-06.
 Requested convergence on             energy=1.00D-06.
 No special actions if energy rises.
 Keep R1 ints in memory in canonical form, NReq=25490472.
 Error on total polarization charges =  0.00743
 SCF Done:  E(RB3LYP) =  -270.008397679     A.U. after    9 cycles
             Convg  =    0.2508D-08             -V/T =  2.0101
 D1PCM: PCM CHGder 1st derivatives, ID1Alg=3 FixD1E=F DoIter=F DoCFld=F I1PDM=0.
 Calling FoFJK, ICntrl=      2127 FMM=F ISym2X=0 I1Cent= 0 IOpClX= 0 NMat=1 NMatS=1 NMatT=0.
 ***** Axes restored to original set *****
 -------------------------------------------------------------------
 Center     Atomic                   Forces (Hartrees/Bohr)
 Number     Number              X              Y              Z
 -------------------------------------------------------------------
      1        6          -0.001911968   -0.001171805    0.000358368
      2        1           0.000290782    0.000289422   -0.000179270
      3        1           0.000592068    0.000534495   -0.000059070
      4        1           0.000211324    0.000273877   -0.000127270
      5        6           0.009072794    0.000219057   -0.000296904
      6        6          -0.002054056    0.001069159   -0.000356789
      7        1           0.000311965   -0.000240350    0.000161771
      8        1           0.000233919   -0.000240222    0.000071675
      9        1           0.000681662   -0.000292520    0.000054726
     10        8          -0.010520462   -0.000452585    0.000453242
     11        8          -0.006016434   -0.000557309    0.003443101
     12        1           0.005624910    0.001149886   -0.001169551
     13        1           0.004932075   -0.000551598   -0.001339094
     14        1          -0.001448577   -0.000029507   -0.001014936
 -------------------------------------------------------------------
 Cartesian Forces:  Max     0.010520462 RMS     0.002752755

 GradGradGradGradGradGradGradGradGradGradGradGradGradGradGradGradGradGrad
 Berny optimization.
 Internal  Forces:  Max     0.007462491 RMS     0.001432182
 Search for a saddle point.
 Step number   3 out of a maximum of  100
 All quantities printed in internal units (Hartrees-Bohrs-Radians)
 Swaping is turned off.
 Update second derivatives using D2CorX and points    1    2    3
 ITU=  0  0  0
     Eigenvalues ---   -0.01101  -0.00013   0.00063   0.00066   0.00098
     Eigenvalues ---    0.00510   0.00761   0.01172   0.01871   0.05171
     Eigenvalues ---    0.05238   0.05564   0.05748   0.06739   0.10357
     Eigenvalues ---    0.12429   0.12465   0.12657   0.13349   0.13593
     Eigenvalues ---    0.13879   0.14670   0.20781   0.22201   0.31042
     Eigenvalues ---    0.31484   0.33101   0.33271   0.33935   0.34145
     Eigenvalues ---    0.34774   0.34887   0.34923   0.39309   0.47565
     Eigenvalues ---    0.74661
 Eigenvectors required to have negative eigenvalues:
                          R11       R12       A23       D13       D15
   1                    0.60528  -0.59127   0.20559  -0.19372  -0.18976
                          D18       D17       A16       D14       D16
   1                    0.18462   0.17671   0.15331  -0.15041  -0.14644
 RFO step:  Lambda0=8.333670604D-06 Lambda=-9.57724027D-04.
 Linear search not attempted -- option 19 set.
 Maximum step size (   0.030) exceeded in Quadratic search.
    -- Step size scaled by   0.123
 Iteration  1 RMS(Cart)=  0.00472892 RMS(Int)=  0.00002554
 Iteration  2 RMS(Cart)=  0.00001951 RMS(Int)=  0.00001451
 Iteration  3 RMS(Cart)=  0.00000000 RMS(Int)=  0.00001451
 Variable       Old X    -DE/DX   Delta X   Delta X   Delta X     New X
                                 (Linear)    (Quad)   (Total)
    R1        2.07875  -0.00031   0.00000  -0.00018  -0.00018   2.07857
    R2        2.06570  -0.00001   0.00000   0.00003   0.00003   2.06573
    R3        2.07353  -0.00008   0.00000  -0.00004  -0.00004   2.07349
    R4        2.83643   0.00048   0.00000   0.00086   0.00086   2.83729
    R5        2.83578   0.00069   0.00000   0.00096   0.00096   2.83673
    R6        2.34201  -0.00746   0.00000  -0.00164  -0.00164   2.34038
    R7        2.07867  -0.00032   0.00000  -0.00019  -0.00019   2.07848
    R8        2.07352  -0.00009   0.00000  -0.00006  -0.00006   2.07347
    R9        2.06506   0.00017   0.00000   0.00010   0.00010   2.06516
   R10        4.58082  -0.00088   0.00000   0.01198   0.01198   4.59280
   R11        3.70396   0.00210   0.00000   0.01399   0.01400   3.71796
   R12        3.60687   0.00185   0.00000   0.01936   0.01937   3.62624
   R13        1.88939  -0.00324   0.00000  -0.00161  -0.00162   1.88776
   R14        1.89172  -0.00261   0.00000  -0.00187  -0.00190   1.88982
   R15        1.85758  -0.00026   0.00000   0.00021   0.00021   1.85779
    A1        1.90810   0.00053   0.00000   0.00051   0.00051   1.90861
    A2        1.85895   0.00040   0.00000   0.00068   0.00068   1.85963
    A3        1.89314  -0.00019   0.00000   0.00007   0.00007   1.89321
    A4        1.92846   0.00058   0.00000   0.00026   0.00026   1.92871
    A5        1.94598  -0.00109   0.00000  -0.00111  -0.00111   1.94487
    A6        1.92673  -0.00018   0.00000  -0.00031  -0.00031   1.92642
    A7        2.05859  -0.00042   0.00000  -0.00092  -0.00092   2.05768
    A8        2.11144   0.00023   0.00000   0.00056   0.00056   2.11200
    A9        2.11315   0.00018   0.00000   0.00036   0.00036   2.11351
   A10        1.89414  -0.00014   0.00000   0.00006   0.00006   1.89420
   A11        1.92588  -0.00021   0.00000  -0.00025  -0.00025   1.92563
   A12        1.94518  -0.00097   0.00000  -0.00102  -0.00102   1.94415
   A13        1.85892   0.00037   0.00000   0.00066   0.00066   1.85958
   A14        1.90833   0.00049   0.00000   0.00044   0.00044   1.90877
   A15        1.92897   0.00051   0.00000   0.00020   0.00020   1.92917
   A16        2.69483   0.00090   0.00000  -0.00052  -0.00058   2.69426
   A17        2.75572   0.00047   0.00000  -0.00047  -0.00055   2.75517
   A18        0.80892  -0.00127   0.00000  -0.00267  -0.00267   0.80624
   A19        2.25602   0.00043   0.00000  -0.00129  -0.00129   2.25473
   A20        1.73046   0.00142   0.00000   0.00544   0.00542   1.73589
   A21        1.94845  -0.00335   0.00000  -0.00320  -0.00320   1.94525
   A22        1.95123  -0.00314   0.00000  -0.00365  -0.00365   1.94758
   A23        3.11883   0.00015   0.00000  -0.00077  -0.00080   3.11803
   A24        3.29509   0.00178   0.00000   0.00965   0.00964   3.30474
    D1       -1.22500  -0.00020   0.00000   0.00213   0.00212  -1.22288
    D2        1.91685  -0.00002   0.00000   0.00238   0.00238   1.91923
    D3        2.95622  -0.00006   0.00000   0.00214   0.00213   2.95835
    D4       -0.18512   0.00011   0.00000   0.00239   0.00239  -0.18273
    D5        0.80565   0.00008   0.00000   0.00281   0.00281   0.80846
    D6       -2.33568   0.00025   0.00000   0.00306   0.00306  -2.33262
    D7       -1.22820  -0.00001   0.00000   0.00126   0.00126  -1.22694
    D8        0.80252   0.00024   0.00000   0.00195   0.00195   0.80447
    D9        2.95258   0.00007   0.00000   0.00131   0.00131   2.95389
   D10        1.91314  -0.00018   0.00000   0.00101   0.00100   1.91414
   D11       -2.33933   0.00007   0.00000   0.00170   0.00169  -2.33763
   D12       -0.18927  -0.00010   0.00000   0.00106   0.00106  -0.18821
   D13       -0.20562   0.00012   0.00000  -0.01489  -0.01489  -0.22051
   D14       -2.88106  -0.00039   0.00000   0.02102   0.02101  -2.86005
   D15        2.93624   0.00029   0.00000  -0.01463  -0.01463   2.92161
   D16        0.26080  -0.00021   0.00000   0.02128   0.02127   0.28207
   D17        1.64281   0.00070   0.00000   0.00388   0.00389   1.64670
   D18       -1.60141  -0.00057   0.00000  -0.00266  -0.00266  -1.60408
         Item               Value     Threshold  Converged?
 Maximum Force            0.007462     0.000450     NO 
 RMS     Force            0.001432     0.000300     NO 
 Maximum Displacement     0.014879     0.001800     NO 
 RMS     Displacement     0.004725     0.001200     NO 
 Predicted change in Energy=-1.110666D-04
 GradGradGradGradGradGradGradGradGradGradGradGradGradGradGradGradGradGrad

                          Input orientation:                          
 ---------------------------------------------------------------------
 Center     Atomic      Atomic             Coordinates (Angstroms)
 Number     Number       Type             X           Y           Z
 ---------------------------------------------------------------------
      1          6           0       -1.547810   -1.299961    0.004984
      2          1           0       -1.980678   -1.428486    1.007959
      3          1           0       -0.888614   -2.143527   -0.215931
      4          1           0       -2.389869   -1.275746   -0.698075
      5          6           0       -0.801759    0.002581   -0.027851
      6          6           0       -1.602224    1.271738    0.015753
      7          1           0       -2.134056    1.382592   -0.940602
      8          1           0       -2.371440    1.210684    0.795814
      9          1           0       -0.961144    2.141998    0.176865
     10          8           0        0.434914    0.028138   -0.089524
     11          8           0        2.855849    0.005277    0.123606
     12          1           0        2.232462   -0.766150    0.004390
     13          1           0        2.205576    0.758712    0.025713
     14          1           0        3.541626    0.025556   -0.580515
 ---------------------------------------------------------------------
                    Distance matrix (angstroms):
                    1          2          3          4          5
     1  C    0.000000
     2  H    1.099932   0.000000
     3  H    1.093136   1.789356   0.000000
     4  H    1.097243   1.761057   1.799798   0.000000
     5  C    1.501428   2.123842   2.156084   2.146023   0.000000
     6  C    2.572297   2.901536   3.496706   2.760365   1.501135
     7  H    2.904119   3.423824   3.809172   2.681608   2.124279
     8  H    2.758100   2.676363   3.804357   2.900756   2.145189
     9  H    3.495826   3.805065   4.304099   3.806277   2.155091
    10  O    2.388299   3.026765   2.546337   3.170149   1.238473
    11  O    4.594554   5.121498   4.330547   5.462026   3.660743
    12  H    3.817776   4.381368   3.418599   4.703094   3.130253
    13  H    4.280942   4.824247   4.249163   5.077499   3.101397
    14  H    5.291708   5.927338   4.946197   6.073701   4.378466
                    6          7          8          9         10
     6  C    0.000000
     7  H    1.099886   0.000000
     8  H    1.097231   1.760978   0.000000
     9  H    1.092837   1.789176   1.799827   0.000000
    10  O    2.389049   3.026299   3.171413   2.547222   0.000000
    11  O    4.635728   5.284760   5.406424   4.374682   2.430406
    12  H    4.342573   4.957478   5.072489   4.322753   1.967459
    13  H    3.842218   4.489476   4.663304   3.458965   1.918922
    14  H    5.326134   5.846758   6.185723   5.032683   3.145273
                   11         12         13         14
    11  O    0.000000
    12  H    0.998961   0.000000
    13  H    1.000051   1.525248   0.000000
    14  H    0.983102   1.637933   1.640141   0.000000
 Stoichiometry    C3H9O2(1+)
 Framework group  C1[X(C3H9O2)]
 Deg. of freedom    36
 Full point group                 C1      NOp   1
 Largest Abelian subgroup         C1      NOp   1
 Largest concise Abelian subgroup C1      NOp   1
                         Standard orientation:                         
 ---------------------------------------------------------------------
 Center     Atomic      Atomic             Coordinates (Angstroms)
 Number     Number       Type             X           Y           Z
 ---------------------------------------------------------------------
      1          6           0        1.544859    1.300264    0.013379
      2          1           0        1.975793    1.428072    1.017277
      3          1           0        0.886164    2.144037   -0.208242
[...]
     Eigenvalues ---    0.00455   0.00865   0.01480   0.01942   0.05259
     Eigenvalues ---    0.05347   0.05590   0.05836   0.07367   0.10228
     Eigenvalues ---    0.12556   0.12678   0.12821   0.13494   0.13575
     Eigenvalues ---    0.14226   0.14794   0.21193   0.22208   0.31144
     Eigenvalues ---    0.31296   0.33457   0.33622   0.34244   0.34428
     Eigenvalues ---    0.34954   0.35104   0.37525   0.42504   0.47479
     Eigenvalues ---    0.78753
 Eigenvectors required to have negative eigenvalues:
                          R11       R12       D15       D13       D16
   1                    0.63263  -0.63133  -0.17951  -0.17859  -0.17226
                          D14       D17       D18       A23       A16
   1                   -0.17134   0.17023   0.16344   0.11633   0.05245
 Angle between quadratic step and forces=  80.41 degrees.
 Linear search not attempted -- option 19 set.
 Maximum step size (   0.030) exceeded in Quadratic search.
    -- Step size scaled by   0.806
 Iteration  1 RMS(Cart)=  0.00952421 RMS(Int)=  0.00012277
 Iteration  2 RMS(Cart)=  0.00013205 RMS(Int)=  0.00009590
 Iteration  3 RMS(Cart)=  0.00000001 RMS(Int)=  0.00009590
 Variable       Old X    -DE/DX   Delta X   Delta X   Delta X     New X
                                 (Linear)    (Quad)   (Total)
    R1        2.07690  -0.00074   0.00000  -0.00168  -0.00168   2.07522
    R2        2.06585  -0.00097   0.00000  -0.00205  -0.00205   2.06380
    R3        2.07345  -0.00082   0.00000  -0.00182  -0.00182   2.07163
    R4        2.84397   0.00057   0.00000   0.00011   0.00011   2.84408
    R5        2.84409   0.00057   0.00000   0.00009   0.00009   2.84417
    R6        2.32869   0.00103   0.00000   0.00151   0.00151   2.33020
    R7        2.07680  -0.00074   0.00000  -0.00166  -0.00166   2.07513
    R8        2.07340  -0.00082   0.00000  -0.00179  -0.00179   2.07162
    R9        2.06586  -0.00097   0.00000  -0.00205  -0.00205   2.06380
   R10        4.69743  -0.00005   0.00000  -0.00293  -0.00288   4.69455
   R11        3.82070  -0.00002   0.00000  -0.00222  -0.00220   3.81850
   R12        3.81175   0.00000   0.00000  -0.00243  -0.00241   3.80934
   R13        1.87701  -0.00028   0.00000  -0.00050  -0.00059   1.87642
   R14        1.87739  -0.00028   0.00000  -0.00047  -0.00059   1.87680
   R15        1.85896  -0.00023   0.00000  -0.00033  -0.00033   1.85864
    A1        1.91357  -0.00056   0.00000  -0.00376  -0.00375   1.90981
    A2        1.86412  -0.00044   0.00000  -0.00099  -0.00101   1.86311
    A3        1.89665   0.00070   0.00000   0.00447   0.00446   1.90111
    A4        1.92911  -0.00061   0.00000  -0.00385  -0.00384   1.92527
    A5        1.93669   0.00012   0.00000  -0.00094  -0.00094   1.93575
    A6        1.92201   0.00079   0.00000   0.00516   0.00515   1.92716
    A7        2.05089   0.00173   0.00000   0.00764   0.00765   2.05854
    A8        2.11607  -0.00087   0.00000  -0.00384  -0.00386   2.11222
    A9        2.11622  -0.00086   0.00000  -0.00379  -0.00379   2.11243
   A10        1.89714   0.00068   0.00000   0.00448   0.00447   1.90161
   A11        1.92180   0.00080   0.00000   0.00507   0.00506   1.92686
   A12        1.93659   0.00013   0.00000  -0.00092  -0.00092   1.93568
   A13        1.86396  -0.00044   0.00000  -0.00094  -0.00096   1.86300
   A14        1.91339  -0.00056   0.00000  -0.00372  -0.00372   1.90967
   A15        1.92927  -0.00061   0.00000  -0.00388  -0.00388   1.92540
   A16        2.73453   0.00009   0.00000   0.00539   0.00499   2.73952
   A17        2.73785   0.00009   0.00000   0.00441   0.00391   2.74176
   A18        0.78434  -0.00017   0.00000   0.00002  -0.00004   0.78429
   A19        2.27268   0.00011   0.00000   0.00476   0.00468   2.27736
   A20        1.77970  -0.00014   0.00000  -0.00080  -0.00085   1.77885
   A21        1.92562  -0.00018   0.00000  -0.00032  -0.00024   1.92538
   A22        1.92560  -0.00018   0.00000  -0.00029  -0.00022   1.92538
   A23        3.14186  -0.00001   0.00000   0.00138   0.00129   3.14315
   A24        3.31264   0.00012   0.00000  -0.02144  -0.02127   3.29136
    D1       -1.17965  -0.00017   0.00000  -0.00322  -0.00324  -1.18289
    D2        1.96327  -0.00018   0.00000  -0.00364  -0.00364   1.95963
    D3        2.99827   0.00001   0.00000  -0.00087  -0.00089   2.99739
    D4       -0.14199   0.00000   0.00000  -0.00130  -0.00129  -0.14328
    D5        0.85662   0.00015   0.00000   0.00108   0.00108   0.85770
    D6       -2.28365   0.00014   0.00000   0.00066   0.00068  -2.28297
    D7       -1.18656  -0.00018   0.00000  -0.00242  -0.00241  -1.18898
    D8        0.84967   0.00014   0.00000   0.00191   0.00193   0.85160
    D9        2.99133   0.00000   0.00000  -0.00014  -0.00012   2.99120
   D10        1.95370  -0.00017   0.00000  -0.00199  -0.00201   1.95169
   D11       -2.29325   0.00015   0.00000   0.00233   0.00233  -2.29092
   D12       -0.15159   0.00001   0.00000   0.00029   0.00028  -0.15132
   D13       -0.23834   0.00003   0.00000   0.04356   0.04359  -0.19475
   D14       -2.88124  -0.00001   0.00000  -0.04629  -0.04636  -2.92759
   D15        2.90463   0.00001   0.00000   0.04311   0.04317   2.94780
   D16        0.26173  -0.00003   0.00000  -0.04674  -0.04678   0.21496
   D17        1.64095  -0.00006   0.00000  -0.00835  -0.00825   1.63270
   D18       -1.61641   0.00007   0.00000   0.00674   0.00664  -1.60977
         Item               Value     Threshold  Converged?
 Maximum Force            0.001732     0.000450     NO 
 RMS     Force            0.000515     0.000300     NO 
 Maximum Displacement     0.033767     0.001800     NO 
 RMS     Displacement     0.009587     0.001200     NO 
 Predicted change in Energy=-3.684147D-05
 GradGradGradGradGradGradGradGradGradGradGradGradGradGradGradGradGradGrad


 Test job not archived.
 1|1|UNPC-LAPTOP-16-CREMA|Freq|RB3LYP|6-31+G(d)|C3H9O2(1+)|CREMA|08-Jun
 -2024|0||#N Geom=AllCheck Guess=TCheck SCRF=Check Test GenChk RB3LYP/6
 -31+G(d) Freq||Title Card Required||1,1|C,-1.5825713366,-1.3061440658,
 0.0018548335|H,-2.051705728,-1.4136687559,0.98991229|H,-0.9211066293,-
 2.1561672288,-0.1852776455|H,-2.3956835224,-1.2819106466,-0.7344615195
 |C,-0.8168823187,-0.0109010791,-0.0295199832|C,-1.6102536268,1.2670061
 724,0.0216378168|H,-2.1780162511,1.3669050702,-0.9140177247|H,-2.34507
 97392,1.2225364024,0.8352088285|H,-0.9522232824,2.1310883308,0.1459457
 715|O,0.4135335913,0.0027400339,-0.0960553875|O,2.8890349181,0.0200873
 921,0.1290113629|H,2.285821079,-0.7559493586,-0.0141075166|H,2.2685172
 078,0.7873508298,0.0138899893|H,3.5894476381,0.0404319032,-0.561434115
 4||Version=IA32W-G09RevC.01|State=1-A|HF=-270.0014968|RMSD=2.226e-009|
 RMSF=4.904e-004|ZeroPoint=0.1206623|Thermal=0.1288963|Dipole=2.8105512
 ,0.0335816,-0.5587713|DipoleDeriv=-0.2310292,-0.2280279,0.0306891,-0.2
 667663,-0.3212273,0.0379451,0.0674574,0.0692678,0.0244118,0.1080696,0.
 0061719,0.0552142,-0.0294889,0.0730876,-0.0387613,0.0711473,-0.0050201
 ,-0.0212769,0.0020643,0.0970076,0.0234655,0.0450634,-0.057802,-0.02006
 94,0.0115089,-0.0376963,0.1063469,0.0341126,0.0224909,-0.0832384,0.006
 8923,0.0648442,0.0494506,-0.1220946,-0.0110723,0.0433936,1.9334599,0.0
 063841,-0.0867124,0.0051961,1.3044183,-0.0312604,-0.0935114,-0.0111146
 ,0.2192457,-0.2481174,0.2350798,-0.0058009,0.2707361,-0.3107145,0.0106
 384,-0.0409537,0.0451525,0.0307338,0.0944296,-0.005566,-0.0667134,0.02
 61354,0.0740988,-0.042824,-0.083046,-0.0058345,-0.008293,0.0551957,-0.
 0239601,0.0801693,-0.0027617,0.063758,0.052351,0.1214868,-0.0058005,0.
 0223362,0.0030738,-0.0984527,-0.0130639,-0.0455686,-0.0606825,-0.01650
 57,0.0000572,-0.0289283,0.108719,-2.1236691,-0.0153656,0.0679442,-0.01
 35802,-0.775998,-0.0012015,0.0485668,-0.0094049,-0.45568,-0.9096146,-0
 .0046337,0.0157765,-0.0035194,-0.4714649,-0.0010101,0.0177587,-0.00069
 19,-0.389416,0.8486436,0.035399,0.0195702,0.0774369,0.504052,-0.024868
 1,0.0385711,-0.0337409,0.4229813,0.8569159,-0.0294393,0.0175891,-0.073
 2763,0.499563,0.0278099,0.0351395,0.0367989,0.4251585,0.5764652,0.0029
 12,-0.054889,0.0035013,0.4140674,-0.0016946,-0.0720882,-0.0019151,0.47
 13391|Polar=70.2349964,0.1711892,54.6065688,-1.6332857,-0.2179601,42.4
 20738|PG=C01 [X(C3H9O2)]|NImag=1||0.56046963,-0.06692719,0.52518193,0.
 00143001,0.01310625,0.52322517,-0.08817771,-0.00913963,0.10590643,0.09
 664455,-0.01078437,-0.05143493,0.02568788,0.01332191,0.05065303,0.1027
 4024,0.02276338,-0.25630634,-0.11228146,-0.02587473,0.27895499,-0.1533
 6300,0.13256791,0.02840397,-0.00744912,0.00925766,0.00055312,0.1606331
 6,0.12684013,-0.21196570,-0.03715130,-0.00354511,0.00440836,0.00013312
 ,-0.13971641,0.22991754,0.02754992,-0.03799596,-0.05682665,0.01627182,
 -0.02308907,-0.00295589,-0.03168661,0.04020434,0.05489987,-0.18968723,
 0.00744166,-0.13688069,0.01132232,0.00046554,0.00975374,-0.01183447,-0
 .00145047,-0.01171058,0.20615248,0.00698210,-0.05155751,0.00148123,0.0
 0341799,-0.00011996,0.00247887,0.01649267,0.00142750,0.01809449,-0.004
 05909,0.04992987,-0.13522830,0.00113787,-0.16264706,-0.02242475,-0.000
 03127,-0.01984893,0.00609165,0.00116971,0.00515509,0.14698163,-0.00475
 029,0.17703363,-0.09357101,-0.03654382,-0.00415152,-0.01125639,-0.0098
 7011,0.00028866,0.01061561,0.02131123,0.00010794,-0.01555785,-0.019594
 31,0.00399633,0.89488223,-0.02914782,-0.18949297,-0.00323574,-0.002108
 10,0.00040556,0.00034908,-0.01644831,-0.02446390,0.00275304,0.00122555
 ,0.00577192,0.00176528,0.00430342,0.51728543,-0.00240747,0.00041557,-0
 .09066484,0.01722139,0.02988065,0.00081869,-0.00391473,-0.00532959,-0.
 00155309,-0.01055216,-0.02370881,0.00106560,-0.03413114,0.00348312,0.2
 5013499,0.01473437,-0.01147268,-0.00135084,-0.00056523,0.00106250,0.00
 089999,-0.00141672,-0.00480312,0.00075840,0.00014286,0.00144328,-0.000
 02207,-0.09441645,0.03076103,0.00280466,0.55703176,0.01228388,-0.02357
 971,-0.00111704,0.00065589,-0.00038974,-0.00005780,-0.00231221,-0.0033
 9083,0.00036315,0.00093065,-0.00035055,0.00011569,0.03849393,-0.187899
 39,-0.00383495,0.06842528,0.52834543,0.00168500,0.00011176,0.01706698,
 -0.00156611,-0.00294551,-0.00035886,0.00049328,0.00018925,0.00136380,0
 .00056978,0.00278808,-0.00022475,0.00441071,-0.00695868,-0.09131259,-0
 .00530622,0.00631943,0.52412440,-0.00044037,-0.00067228,0.00166118,0.0
 0010706,-0.00056899,-0.00006706,0.00001590,0.00000935,0.00019718,0.000
 61958,-0.00003658,0.00015057,-0.01329325,0.00204064,-0.01640478,-0.111
 13419,0.01068164,-0.12111056,0.12143100,-0.00134466,-0.00040905,-0.002
 82926,0.00055203,0.00049805,-0.00010040,-0.00017358,0.00014573,-0.0005
 2534,-0.00019643,-0.00149387,0.00022718,0.01274103,0.00037765,0.028250
 45,0.01261162,-0.05091046,0.02292277,-0.01506586,0.05009578,-0.0008543
 2,-0.00007606,-0.00037558,0.00006163,-0.00003264,0.00013412,0.00007083
 ,0.00013594,0.00014946,0.00041707,-0.00012849,0.00030674,0.00125950,0.
 00012209,0.00230083,-0.11783779,0.02009461,-0.23365259,0.12857026,-0.0
 2251429,0.25475020,0.00019479,-0.00093622,-0.00068649,0.00051608,0.000
 24703,-0.00045354,-0.00008477,-0.00009461,-0.00040008,-0.00007592,-0.0
 0010429,-0.00005200,-0.01503773,-0.00163937,0.01279122,-0.16218597,-0.
 01019334,0.13681637,0.01234408,-0.00013227,-0.01303884,0.17656200,-0.0
 0110306,-0.00025935,0.00292287,0.00008121,-0.00164061,-0.00011377,0.00
 004888,0.00057568,0.00013414,0.00007169,0.00019640,-0.00016556,0.01650
 971,0.00632176,-0.02528757,-0.00980743,-0.05233908,0.00588672,-0.00298
 538,-0.00024547,0.00263183,0.00701668,0.05053694,-0.00005066,0.0002478
 3,-0.00013900,-0.00009392,0.00024200,0.00029099,-0.00007000,-0.0001025
 6,0.00014231,0.00005178,-0.00015583,-0.00005726,-0.00236223,0.00175000
 ,0.00016471,0.13517956,0.00559142,-0.19020997,0.01916829,0.00050756,-0
 .02079370,-0.14692785,-0.00913388,0.20678103,-0.00167257,0.00237488,-0
 .00019844,-0.00001199,0.00011915,-0.00006362,0.00043923,0.00080779,-0.
 00010961,-0.00004300,-0.00005166,0.00009056,0.01095947,0.01739653,0.00
 281242,-0.15213321,-0.13431154,-0.01838470,-0.00890080,-0.01180401,0.0
 0001007,-0.01080408,-0.01483879,-0.00455213,0.15960433,0.00484047,-0.0
 0323362,-0.00029410,0.00000261,0.00015076,0.00012814,-0.00075327,-0.00
 143987,0.00015996,0.00006747,0.00057711,-0.00011144,-0.02095378,-0.024
 56163,-0.00317813,-0.12852746,-0.21749973,-0.02554643,0.00331561,0.004
 33215,-0.00019591,0.00121526,0.00103508,0.00090372,0.14139718,0.235874
 11,-0.00044005,0.00011018,0.00145400,-0.00016968,-0.00053726,0.0001832
 7,0.00010038,0.00008176,0.00044786,0.00040723,0.00014916,0.00009545,-0
 .00149736,0.00097436,-0.00179623,-0.01750074,-0.02577933,-0.05236329,-
 0.01516546,-0.02235161,-0.00145039,0.01291825,0.01992332,0.00453476,0.
 02071226,0.02738045,0.04978259,-0.05076043,-0.01730697,0.00625098,-0.0
 0134484,-0.00365004,-0.00135600,0.00252245,0.00069451,-0.00104392,-0.0
 0130381,-0.00493899,0.00028975,-0.66053690,-0.00626851,0.03125004,-0.0
 5234671,0.01591598,0.00226943,-0.00097548,0.00319471,0.00134847,-0.001
 68912,0.00545175,-0.00018196,0.00263875,-0.00065750,0.00069942,0.78585
 277,-0.04187796,0.00674693,0.00148397,-0.00328406,-0.00257365,0.000288
 18,0.00104913,0.00484661,-0.00008881,-0.00453709,-0.00441806,0.0006528
 2,-0.00624381,-0.10643890,-0.00074388,0.04050571,0.00803127,-0.0028524
 6,0.00330911,-0.00240493,-0.00004051,0.00466886,-0.00422659,0.00016106
 ,-0.00109975,0.00482404,0.00005497,0.00766294,0.09864813,0.00539209,0.
 00016976,0.02485768,-0.00290090,-0.00325703,-0.00088766,-0.00002466,0.
 00067640,-0.00081622,0.00092416,0.00366651,-0.00086864,0.03227739,-0.0
 0105831,-0.06862964,0.00226593,-0.00166542,0.02521724,0.00294761,-0.00
 351723,-0.00134791,-0.00097093,0.00316212,-0.00069612,-0.00031057,0.00
 074990,-0.00087814,-0.03815436,0.00112256,0.02601534,-0.00204542,0.000
 03282,0.00039989,-0.00026569,-0.00041742,-0.00000325,0.00010250,-0.000
 00087,-0.00006028,-0.00029617,-0.00046707,-0.00006993,0.00712840,0.000
 01208,-0.00085142,-0.00206532,-0.00008752,0.00009244,-0.00023395,0.000
 36050,0.00000730,-0.00031237,0.00050691,0.00009671,0.00010069,0.000014
 44,0.00003202,-0.04146728,-0.00031171,-0.00164898,0.64745808,0.0005712
 5,-0.00035358,0.00004655,0.00007261,0.00005364,0.00000093,-0.00003899,
 -0.00005846,0.00001389,0.00009544,0.00011470,-0.00003998,-0.00000473,0
 .00492850,0.00007713,-0.00058948,-0.00036042,0.00000713,-0.00008658,0.
 00007154,0.00001041,-0.00009783,0.00010648,-0.00002601,0.00004317,-0.0
 0005663,0.00000704,-0.00033748,0.00001417,-0.00011394,0.00361962,0.623
 40114,-0.00002322,0.00006874,-0.00030162,0.00003356,0.00005233,0.00001
 661,0.00002609,0.00001321,0.00001207,-0.00002351,-0.00005563,0.0000229
 8,0.00006233,0.00007216,0.00067142,0.00002624,-0.00004781,-0.00028067,
 -0.00004829,0.00005252,0.00002269,0.00000893,-0.00005226,-0.00000344,0
 .00002535,-0.00002494,0.00000583,0.00054551,-0.00005698,0.00404141,-0.
 17712939,0.00356534,0.32754689,0.00122728,0.00054382,-0.00009655,0.000
 11347,0.00026771,-0.00001231,-0.00003682,0.00002109,0.00004462,0.00017
 427,0.00032319,0.00011327,-0.00936590,-0.00586172,0.00063471,0.0029026
 4,0.00009063,-0.00035580,0.00027562,-0.00038877,0.00000002,0.00041562,
 -0.00063726,-0.00009346,-0.00013141,0.00005065,-0.00004635,0.00967596,
 0.00100971,0.00045751,-0.18452647,-0.17251791,-0.01202567,0.17182572,-
 0.00060533,0.00013486,0.00018382,-0.00004621,-0.00009521,-0.00001028,0
 .00004359,-0.00002364,-0.00003846,-0.00003350,-0.00010382,-0.00001975,
 0.00018972,-0.00151739,-0.00007553,-0.00015560,0.00024156,-0.00009107,
 0.00001793,0.00003435,0.00000718,0.00003094,0.00003015,0.00004611,0.00
 000644,0.00002884,0.00000952,-0.00256581,-0.00167665,-0.00011756,-0.15
 648610,-0.27807722,-0.04637999,0.17710178,0.30671602,0.00011253,0.0000
 3115,-0.00033851,0.00005110,0.00006688,-0.00000034,-0.00002745,-0.0000
 1676,-0.00000312,-0.00000937,-0.00000278,0.00001442,-0.00046177,-0.000
 49404,-0.00057768,0.00022265,-0.00000101,0.00093195,0.00014315,-0.0001
 7949,-0.00005058,-0.00002545,0.00009037,-0.00002969,-0.00002646,0.0000
 3337,-0.00001665,0.00082720,0.00032623,-0.00273271,-0.03455767,-0.0856
 0213,-0.04649443,0.01714425,0.05073605,0.04085074,0.00288949,0.0000009
 4,-0.00071395,0.00035993,0.00052507,0.00000858,-0.00013394,-0.00007452
 ,0.00007833,0.00036314,0.00054080,0.00007493,-0.00960876,0.00574547,0.
 00085217,0.00126009,-0.00053411,0.00031606,0.00015908,-0.00030963,-0.0
 0000805,0.00014026,-0.00028528,-0.00014539,-0.00003437,-0.00001317,-0.
 00004089,0.00972682,-0.00085619,0.00036304,-0.19134037,0.17457397,-0.0
 0663464,0.02127978,-0.01842618,0.00123659,0.17930202,0.00017115,0.0002
 4871,-0.00009076,-0.00001358,0.00004365,0.00000899,-0.00000603,0.00003
 239,0.00001145,-0.00002313,0.00003325,0.00004706,-0.00029797,-0.001483
 13,0.00003736,0.00063981,0.00014277,-0.00002967,0.00002970,-0.00007067
 ,-0.00000671,0.00004629,-0.00013216,-0.00002462,-0.00004556,-0.0000285
 2,-0.00002120,0.00271137,-0.00168136,0.00017541,0.15934533,-0.27450986
 ,0.03789982,0.01953237,-0.03220890,0.00603083,-0.18024035,0.30203537,0
 .00033907,-0.00006570,0.00093286,-0.00008036,-0.00011067,-0.00004253,-
 0.00002213,0.00000289,-0.00001179,0.00010330,0.00019425,-0.00003373,-0
 .00045529,0.00045844,-0.00057020,0.00011514,0.00000179,-0.00032750,-0.
 00001795,0.00001789,0.00000752,0.00005618,-0.00006149,-0.00000261,-0.0
 0001147,-0.00000933,-0.00000697,0.00086988,-0.00029107,-0.00285457,-0.
 03059252,0.07664237,-0.04151765,0.00207973,-0.00725118,0.00222397,0.01
 168504,-0.04119955,0.03730124,0.00020218,0.00003677,0.00002603,0.00000
 757,0.00002436,-0.00000711,-0.00001003,0.00000100,0.00000286,0.0000238
 0,0.00005197,0.00000834,-0.00094146,-0.00001091,-0.00010491,0.00019208
 ,-0.00003916,0.00007032,0.00002573,-0.00004468,-0.00000616,0.00001714,
 -0.00002963,-0.00001874,-0.00001106,0.00000148,-0.00000902,0.00000782,
 0.00000508,-0.00061732,-0.23223663,-0.00530305,0.19515670,-0.01382977,
 0.00092833,0.01537069,-0.01436317,-0.00184938,0.01593139,0.26091581,0.
 00010140,-0.00002602,-0.00019438,0.00003244,0.00004104,0.00000628,-0.0
 0001103,-0.00001141,0.00000318,0.00000171,-0.00000699,0.00000267,-0.00
 004051,0.00076649,0.00001418,-0.00009347,-0.00004112,0.00019868,0.0000
 1169,-0.00002079,-0.00000744,-0.00002713,0.00004078,-0.00000681,0.0000
 0616,-0.00000209,-0.00000135,0.00009404,0.00030900,0.00000681,-0.00612
 100,-0.07527400,0.00489349,-0.01953530,0.00651705,0.02898134,0.0193531
 9,0.00757845,-0.02832865,0.00622782,0.06012961,-0.00024487,-0.00002478
 ,0.00006293,-0.00002875,-0.00005154,0.00000188,0.00000626,-0.00000640,
 -0.00000372,-0.00003237,-0.00005075,-0.00001355,0.00065646,0.00001918,
 -0.00005199,-0.00025490,0.00001726,0.00002586,-0.00002414,0.00003926,-
 0.00000080,-0.00003576,0.00006316,0.00001800,0.00000632,0.00000474,0.0
 0000793,-0.00361445,-0.00001608,-0.00042007,0.24428507,0.00541126,-0.2
 4374208,-0.00784396,0.00300114,0.00622261,-0.00707182,-0.00283842,0.00
 490196,-0.22580310,-0.00556802,0.23299103||-0.00026570,0.00010826,0.00
 002483,-0.00026218,0.00053977,0.00077046,0.00086512,-0.00053506,-0.000
 17705,-0.00057163,0.00068685,-0.00055983,0.00149088,0.00001446,-0.0000
 4412,-0.00026605,-0.00011800,0.00003153,-0.00033954,-0.00054060,-0.000
 71546,-0.00048629,-0.00070699,0.00064108,0.00086804,0.00055101,0.00010
 564,-0.00104697,-0.00000291,-0.00006695,0.00017783,0.00000733,0.000005
 61,-0.00016928,-0.00029621,0.00006199,-0.00018965,0.00028999,0.0000731
 1,0.00019543,0.00000210,-0.00015085|||@


 HOW IS IT THAT THE SKY FEEDS THE STARS?

                           -- LUCRETIUS
 Job cpu time:  0 days  0 hours  3 minutes 37.0 seconds.
 File lengths (MBytes):  RWF=     64 Int=      0 D2E=      0 Chk=      8 Scr=      1
 Normal termination of Gaussian 09 at Sat Jun 08 06:59:47 2024.
