 Entering Gaussian System, Link 0=g16
 Input=/home/duckter/Documents/KET_DFT_demo/IRC_OH.gjf
 Output=/home/duckter/Documents/KET_DFT_demo/IRC_OH.log
 Initial command:
 /home/duckter/g16/l1.exe "/home/duckter/g16/scratch/Gau-81451.inp" -scrdir="/home/duckter/g16/scratch/"
 Entering Link 1 = /home/duckter/g16/l1.exe PID=     81454.
  
 Copyright (c) 1988-2019, Gaussian, Inc.  All Rights Reserved.
  
 This is part of the Gaussian(R) 16 program.  It is based on
 the Gaussian(R) 09 system (copyright 2009, Gaussian, Inc.),
 the Gaussian(R) 03 system (copyright 2003, Gaussian, Inc.),
 the Gaussian(R) 98 system (copyright 1998, Gaussian, Inc.),
 the Gaussian(R) 94 system (copyright 1995, Gaussian, Inc.),
 the Gaussian 92(TM) system (copyright 1992, Gaussian, Inc.),
 the Gaussian 90(TM) system (copyright 1990, Gaussian, Inc.),
 the Gaussian 88(TM) system (copyright 1988, Gaussian, Inc.),
 the Gaussian 86(TM) system (copyright 1986, Carnegie Mellon
 University), and the Gaussian 82(TM) system (copyright 1983,
 Carnegie Mellon University). Gaussian is a federally registered
 trademark of Gaussian, Inc.
  
 This software contains proprietary and confidential information,
 including trade secrets, belonging to Gaussian, Inc.
  
 This software is provided under written license and may be
 used, copied, transmitted, or stored only in accord with that
 written license.
  
 The following legend is applicable only to US Government
 contracts under FAR:
  
                    RESTRICTED RIGHTS LEGEND
  
 Use, reproduction and disclosure by the US Government is
 subject to restrictions as set forth in subparagraphs (a)
 and (c) of the Commercial Computer Software - Restricted
 Rights clause in FAR 52.227-19.
  
 Gaussian, Inc.
 340 Quinnipiac St., Bldg. 40, Wallingford CT 06492
  
  
 ---------------------------------------------------------------
 Warning -- This program may not be used in any manner that
 competes with the business of Gaussian, Inc. or will provide
 assistance to any competitor of Gaussian, Inc.  The licensee
 of this program is prohibited from giving any competitor of
 Gaussian, Inc. access to this program.  By using this program,
 the user acknowledges that Gaussian, Inc. is engaged in the
 business of creating and licensing software in the field of
 computational chemistry and represents and warrants to the
 licensee that it is not a competitor of Gaussian, Inc. and that
 it will not use this program in any manner prohibited above.
 ---------------------------------------------------------------
  

 Cite this work as:
 Gaussian 16, Revision C.01,
 M. J. Frisch, G. W. Trucks, H. B. Schlegel, G. E. Scuseria, 
 M. A. Robb, J. R. Cheeseman, G. Scalmani, V. Barone, 
 G. A. Petersson, H. Nakatsuji, X. Li, M. Caricato, A. V. Marenich, 
 J. Bloino, B. G. Janesko, R. Gomperts, B. Mennucci, H. P. Hratchian, 
 J. V. Ortiz, A. F. Izmaylov, J. L. Sonnenberg, D. Williams-Young, 
 F. Ding, F. Lipparini, F. Egidi, J. Goings, B. Peng, A. Petrone, 
 T. Henderson, D. Ranasinghe, V. G. Zakrzewski, J. Gao, N. Rega, 
 G. Zheng, W. Liang, M. Hada, M. Ehara, K. Toyota, R. Fukuda, 
 J. Hasegawa, M. Ishida, T. Nakajima, Y. Honda, O. Kitao, H. Nakai, 
 T. Vreven, K. Throssell, J. A. Montgomery, Jr., J. E. Peralta, 
 F. Ogliaro, M. J. Bearpark, J. J. Heyd, E. N. Brothers, K. N. Kudin, 
 V. N. Staroverov, T. A. Keith, R. Kobayashi, J. Normand, 
 K. Raghavachari, A. P. Rendell, J. C. Burant, S. S. Iyengar, 
 J. Tomasi, M. Cossi, J. M. Millam, M. Klene, C. Adamo, R. Cammi, 
 J. W. Ochterski, R. L. Martin, K. Morokuma, O. Farkas, 
 J. B. Foresman, and D. J. Fox, Gaussian, Inc., Wallingford CT, 2019.
 
 ******************************************
 Gaussian 16:  ES64L-G16RevC.01  3-Jul-2019
                28-Jun-2024 
 ******************************************
 %nprocshared=32
 Will use up to   32 processors via shared memory.
 %chk=IRCOH.chk
 ----------------------------------------------------------------------
 # irc=(calcfc,maxpoints=20) b3lyp/6-31+g(d) scrf empiricaldispersion=g
 d3bj
 ----------------------------------------------------------------------
 1/10=4,18=10,26=3,38=1,42=20,44=3,172=1/1,23;
 2/12=2,17=6,18=5,29=1,40=1/2;
 3/5=1,6=6,7=11,11=2,25=1,30=1,70=2201,71=2,74=-5,124=41,140=1/1,2,3;
 4//1;
 5/5=2,38=5/2;
 8/6=4,10=90,11=11/1;
 11/6=1,8=1,9=11,15=111,16=1/1,2,10;
 10/6=1,13=1/2;
 6/7=2,8=2,9=2,10=2,28=1/1;
 7/10=1,25=1/1,2,3,16;
 1/10=4,18=10,26=3,42=20,44=3/23(2);
 2/29=1/2;
 99/5=20/99;
 2/29=1/2;
 3/5=1,6=6,7=11,11=2,25=1,30=1,70=2205,71=2,74=-5,124=41,140=1/1,2,3;
 4/5=5,16=3,69=1/1;
 5/5=2,38=5/2;
 8/6=4,10=90,11=11/1;
 11/6=1,8=1,9=11,15=111,16=1/1,2,10;
 10/6=1,13=1/2;
 7/10=1,25=1/1,2,3,16;
 1/18=10,26=3,42=20,44=3/23(-8);
 2/29=1/2;
 6/7=2,8=2,9=2,10=2,19=2,28=1/1;
 99/5=20,9=1/99;
 ---------
 GFHDGHDHD
 ---------
 Symbolic Z-matrix:
 Charge = -1 Multiplicity = 1
 C                    -1.38959   1.15893  -0.16597 
 H                    -0.7399    1.98181   0.14787 
 H                    -2.33242   1.23947   0.39173 
 H                    -1.62559   1.26358  -1.23043 
 C                    -0.77088  -0.20924   0.10468 
 C                     0.35433  -0.26928   1.00452 
 H                     0.37659   0.52054   1.7621 
 H                     0.53651  -1.26374   1.42382 
 H                     1.43515  -0.0005    0.25824 
 O                    -1.2233   -1.19841  -0.52046 
 O                     2.54093   0.27793  -0.40267 
 H                     2.64538  -0.45974  -1.02766 
 
 IRC-IRC-IRC-IRC-IRC-IRC-IRC-IRC-IRC-IRC-IRC-IRC-IRC-IRC-IRC-IRC-IRC-IRC
 ------------------------------------------------------------------------
 INPUT DATA FOR L123
 ------------------------------------------------------------------------
 GENERAL PARAMETERS:
 Follow reaction path in both directions.
 Maximum points per path      =  20
 Step size                    =   0.100 bohr
 Integration scheme           = HPC                                 
    Redo corrector integration= Yes                                 
    DWI Weight Power          =  2
    DWI will use Hessian update vectors when possible.
    Max correction cycles     =  20
 Initial Hessian              = CalcFC
 Hessian evaluation           = All updating
 Hessian updating method      = Bofill                              
 ------------------------------------------------------------------------
 IRC-IRC-IRC-IRC-IRC-IRC-IRC-IRC-IRC-IRC-IRC-IRC-IRC-IRC-IRC-IRC-IRC-IRC
                          Input orientation:                          
 ---------------------------------------------------------------------
 Center     Atomic      Atomic             Coordinates (Angstroms)
 Number     Number       Type             X           Y           Z
 ---------------------------------------------------------------------
      1          6           0       -1.389586    1.158927   -0.165973
      2          1           0       -0.739899    1.981807    0.147866
      3          1           0       -2.332417    1.239469    0.391732
      4          1           0       -1.625591    1.263581   -1.230427
      5          6           0       -0.770879   -0.209239    0.104678
      6          6           0        0.354333   -0.269283    1.004516
      7          1           0        0.376587    0.520540    1.762097
      8          1           0        0.536508   -1.263744    1.423817
      9          1           0        1.435147   -0.000495    0.258237
     10          8           0       -1.223295   -1.198406   -0.520456
     11          8           0        2.540929    0.277925   -0.402669
     12          1           0        2.645384   -0.459744   -1.027657
 ---------------------------------------------------------------------
                    Distance matrix (angstroms):
                    1          2          3          4          5
     1  C    0.000000
     2  H    1.094404   0.000000
     3  H    1.098386   1.773880   0.000000
     4  H    1.095314   1.788852   1.769628   0.000000
     5  C    1.525755   2.191691   2.149315   2.163848   0.000000
     6  C    2.539898   2.645487   3.141729   3.356299   1.442018
     7  H    2.691535   2.446954   3.119850   3.676415   2.143897
     8  H    3.479455   3.713606   3.944871   4.255239   2.135736
     9  H    3.082747   2.944916   3.968611   3.630720   2.221195
    10  O    2.389630   3.285435   2.829394   2.593700   1.254561
    11  O    4.034989   3.737664   5.030422   4.360802   3.385676
    12  H    4.432108   4.336262   5.447981   4.610010   3.607740
                    6          7          8          9         10
     6  C    0.000000
     7  H    1.094644   0.000000
     8  H    1.094511   1.823096   0.000000
     9  H    1.340648   1.911445   1.939569   0.000000
    10  O    2.382797   3.274820   2.623237   3.018057   0.000000
    11  O    2.657218   3.070741   3.119375   1.317979   4.045097
    12  H    3.068374   3.727080   3.332191   1.824584   3.971089
                   11         12
    11  O    0.000000
    12  H    0.972459   0.000000
 Symmetry turned off by external request.
 Stoichiometry    C3H7O2(1-)
 Framework group  C1[X(C3H7O2)]
 Deg. of freedom    30
 Full point group                 C1      NOp   1
 Rotational constants (GHZ):           6.5002273           2.4629905           2.2154616
 Standard basis: 6-31+G(d) (6D, 7F)
   109 basis functions,   188 primitive gaussians,   109 cartesian basis functions
    21 alpha electrons       21 beta electrons
       nuclear repulsion energy       168.1087341063 Hartrees.
 NAtoms=   12 NActive=   12 NUniq=   12 SFac= 1.00D+00 NAtFMM=   60 NAOKFM=F Big=F
 Integral buffers will be    131072 words long.
 Raffenetti 2 integral format.
 Two-electron integral symmetry is turned off.
 Nuclear repulsion after empirical dispersion term =      168.0965688732 Hartrees.
 Force inversion solution in PCM.
 ------------------------------------------------------------------------------
 Polarizable Continuum Model (PCM)
 =================================
 Model                : PCM.
 Atomic radii         : UFF (Universal Force Field).
 Polarization charges : Total charges.
 Charge compensation  : None.
 Solution method      : Matrix inversion.
 Cavity type          : Scaled VdW (van der Waals Surface) (Alpha=1.100).
 Cavity algorithm     : GePol (No added spheres)
                        Default sphere list used, NSphG=   12.
                        Lebedev-Laikov grids with approx.  5.0 points / Ang**2.
                        Smoothing algorithm: York/Karplus (Gamma=1.0000).
                        Polarization charges: spherical gaussians, with
                                              point-specific exponents (IZeta= 3).
                        Self-potential: point-specific (ISelfS= 7).
                        Self-field    : sphere-specific E.n sum rule (ISelfD= 2).
 1st derivatives      : Analytical E(r).r(x)/FMM algorithm (CHGder, D1EAlg=3).
                        Cavity 1st derivative terms included.
 2nd derivatives      : Analytical E(r).r(xy)/FMM algorithm (CHGder, D2EAlg=3).
                        Cavity 2nd derivative terms included.
 Solvent              : Water, Eps=  78.355300 Eps(inf)=   1.777849
 ------------------------------------------------------------------------------
 Spheres list:
 ISph  on   Nord     Re0    Alpha      Xe            Ye            Ze
    1   C      1    1.9255  1.100     -1.389586      1.158927     -0.165973
    2   H      2    1.4430  1.100     -0.739899      1.981807      0.147866
    3   H      3    1.4430  1.100     -2.332417      1.239469      0.391732
    4   H      4    1.4430  1.100     -1.625591      1.263581     -1.230427
    5   C      5    1.9255  1.100     -0.770879     -0.209239      0.104678
    6   C      6    1.9255  1.100      0.354333     -0.269283      1.004516
    7   H      7    1.4430  1.100      0.376587      0.520540      1.762097
    8   H      8    1.4430  1.100      0.536508     -1.263744      1.423817
    9   H      9    1.4430  1.100      1.435147     -0.000495      0.258237
   10   O     10    1.7500  1.100     -1.223295     -1.198406     -0.520456
   11   O     11    1.7500  1.100      2.540929      0.277925     -0.402669
   12   H     12    1.4430  1.100      2.645384     -0.459744     -1.027657
 ------------------------------------------------------------------------------
 One-electron integrals computed using PRISM.
 PrsmSu:  requested number of processors reduced to:  30 ShMem   1 Linda.
 NBasis=   109 RedAO= T EigKep=  1.35D-04  NBF=   109
 NBsUse=   109 1.00D-06 EigRej= -1.00D+00 NBFU=   109
 ExpMin= 4.38D-02 ExpMax= 5.48D+03 ExpMxC= 8.25D+02 IAcc=3 IRadAn=         5 AccDes= 0.00D+00
 Harris functional with IExCor=  402 and IRadAn=       5 diagonalized for initial guess.
 HarFok:  IExCor=  402 AccDes= 0.00D+00 IRadAn=         5 IDoV= 1 UseB2=F ITyADJ=14
 ICtDFT=  3500011 ScaDFX=  1.000000  1.000000  1.000000  1.000000
 FoFCou: FMM=F IPFlag=           0 FMFlag=      100000 FMFlg1=           0
         NFxFlg=           0 DoJE=T BraDBF=F KetDBF=T FulRan=T
         wScrn=  0.000000 ICntrl=       500 IOpCl=  0 I1Cent=   200000004 NGrid=           0
         NMat0=    1 NMatS0=      1 NMatT0=    0 NMatD0=    1 NMtDS0=    0 NMtDT0=    0
 Symmetry not used in FoFCou.
 Keep R1 ints in memory in canonical form, NReq=47890873.
 Requested convergence on RMS density matrix=1.00D-08 within 128 cycles.
 Requested convergence on MAX density matrix=1.00D-06.
 Requested convergence on             energy=1.00D-06.
 No special actions if energy rises.
 Inv3:  Mode=1 IEnd=     3864675.
 Iteration    1 A*A^-1 deviation from unit magnitude is 3.55D-15 for   1119.
 Iteration    1 A*A^-1 deviation from orthogonality  is 2.32D-15 for    970    833.
 Iteration    1 A^-1*A deviation from unit magnitude is 3.22D-15 for   1121.
 Iteration    1 A^-1*A deviation from orthogonality  is 3.55D-15 for   1135    238.
 Error on total polarization charges =  0.02270
 SCF Done:  E(RB3LYP) =  -269.106784633     A.U. after   13 cycles
            NFock= 13  Conv=0.51D-08     -V/T= 2.0099
 DoSCS=F DFT=T ScalE2(SS,OS)=  1.000000  1.000000
 Range of M.O.s used for correlation:     1   109
 NBasis=   109 NAE=    21 NBE=    21 NFC=     0 NFV=     0
 NROrb=    109 NOA=    21 NOB=    21 NVA=    88 NVB=    88

 **** Warning!!: The largest alpha MO coefficient is  0.30500523D+02

 PrsmSu:  requested number of processors reduced to:  30 ShMem   1 Linda.
 Symmetrizing basis deriv contribution to polar:
 IMax=3 JMax=2 DiffMx= 0.00D+00
 G2DrvN: will do    13 centers at a time, making    1 passes.
 Calling FoFCou, ICntrl=  3107 FMM=F I1Cent=   0 AccDes= 0.00D+00.
 NEqPCM:  Using equilibrium solvation (IEInf=0, Eps=  78.3553, EpsInf=   1.7778)
 G2PCM: DoFxE=T DoFxN=T DoGrad=T DoDP/DQ/DG/TGxP=FFFF NFrqRd=   0 IEInf=0 SqF1=F DoCFld=F IF1Alg=4.
 CoulSu:  requested number of processors reduced to:  31 ShMem   1 Linda.
 CoulSu:  requested number of processors reduced to:  30 ShMem   1 Linda.
 CoulSu:  requested number of processors reduced to:  31 ShMem   1 Linda.
 CoulSu:  requested number of processors reduced to:  26 ShMem   1 Linda.
 CoulSu:  requested number of processors reduced to:  29 ShMem   1 Linda.
 CoulSu:  requested number of processors reduced to:  30 ShMem   1 Linda.
 CoulSu:  requested number of processors reduced to:  29 ShMem   1 Linda.
 CoulSu:  requested number of processors reduced to:  30 ShMem   1 Linda.
 End of G2Drv F.D. properties file   721 does not exist.
 End of G2Drv F.D. properties file   722 does not exist.
 End of G2Drv F.D. properties file   788 does not exist.
          IDoAtm=111111111111
 NEqPCM:  Using equilibrium solvation (IEInf=0, Eps=  78.3553, EpsInf=   1.7778)
          Differentiating once with respect to nuclear coordinates.
 Keep R1 ints in memory in canonical form, NReq=47790638.
 CoulSu:  requested number of processors reduced to:  30 ShMem   1 Linda.
          There are    39 degrees of freedom in the 1st order CPHF.  IDoFFX=6 NUNeed=     0.
     33 vectors produced by pass  0 Test12= 4.74D-15 2.56D-09 XBig12= 1.26D-01 1.44D-01.
 AX will form    33 AO Fock derivatives at one time.
     33 vectors produced by pass  1 Test12= 4.74D-15 2.56D-09 XBig12= 6.72D-03 2.24D-02.
     33 vectors produced by pass  2 Test12= 4.74D-15 2.56D-09 XBig12= 9.26D-05 1.60D-03.
     33 vectors produced by pass  3 Test12= 4.74D-15 2.56D-09 XBig12= 2.27D-07 7.27D-05.
     33 vectors produced by pass  4 Test12= 4.74D-15 2.56D-09 XBig12= 3.11D-10 3.14D-06.
     25 vectors produced by pass  5 Test12= 4.74D-15 2.56D-09 XBig12= 3.87D-13 1.12D-07.
      1 vectors produced by pass  6 Test12= 4.74D-15 2.56D-09 XBig12= 2.17D-16 2.77D-09.
 InvSVY:  IOpt=1 It=  1 EMax= 1.78D-15
 Solved reduced A of dimension   191 with    33 vectors.
 End of Minotr F.D. properties file   721 does not exist.
 End of Minotr F.D. properties file   722 does not exist.
 End of Minotr F.D. properties file   788 does not exist.

 **********************************************************************

            Population analysis using the SCF Density.

 **********************************************************************

 Alpha  occ. eigenvalues --  -19.11164 -19.07803 -10.25138 -10.17467 -10.13784
 Alpha  occ. eigenvalues --   -0.99886  -0.89434  -0.74130  -0.67613  -0.50716
 Alpha  occ. eigenvalues --   -0.43566  -0.43199  -0.43040  -0.40560  -0.37474
 Alpha  occ. eigenvalues --   -0.35108  -0.34805  -0.31647  -0.24097  -0.23375
 Alpha  occ. eigenvalues --   -0.19629
 Alpha virt. eigenvalues --    0.00936   0.01206   0.03754   0.05026   0.05572
 Alpha virt. eigenvalues --    0.06766   0.07859   0.08108   0.09435   0.10129
 Alpha virt. eigenvalues --    0.11434   0.12196   0.13765   0.17035   0.18420
 Alpha virt. eigenvalues --    0.19862   0.21726   0.23251   0.23933   0.25843
 Alpha virt. eigenvalues --    0.26094   0.27124   0.28595   0.29708   0.31507
 Alpha virt. eigenvalues --    0.33387   0.35147   0.36254   0.37643   0.40618
 Alpha virt. eigenvalues --    0.47655   0.64842   0.66724   0.66954   0.73161
 Alpha virt. eigenvalues --    0.74129   0.76961   0.77968   0.81984   0.84630
 Alpha virt. eigenvalues --    0.95275   1.00762   1.02124   1.06365   1.06989
 Alpha virt. eigenvalues --    1.08399   1.12290   1.16528   1.20934   1.21658
 Alpha virt. eigenvalues --    1.24912   1.25417   1.28707   1.34365   1.37906
 Alpha virt. eigenvalues --    1.41782   1.44502   1.48352   1.60724   1.73038
 Alpha virt. eigenvalues --    1.79838   1.80465   1.81772   1.83005   1.83952
 Alpha virt. eigenvalues --    1.84833   1.87578   1.95404   1.97861   1.98136
 Alpha virt. eigenvalues --    2.10756   2.20722   2.22694   2.27151   2.36185
 Alpha virt. eigenvalues --    2.42593   2.44739   2.53788   2.58466   2.63062
 Alpha virt. eigenvalues --    2.76192   3.01144   3.08503   4.01890   4.21457
 Alpha virt. eigenvalues --    4.24764   4.39234   4.59870
          Condensed to atoms (all electrons):
               1          2          3          4          5          6
     1  C    6.184610   0.368294   0.354697   0.399477   0.114959  -0.510950
     2  H    0.368294   0.502228  -0.025792  -0.027038  -0.077662   0.043562
     3  H    0.354697  -0.025792   0.488529  -0.025794  -0.007245  -0.004504
     4  H    0.399477  -0.027038  -0.025794   0.493266  -0.059339   0.003966
     5  C    0.114959  -0.077662  -0.007245  -0.059339   5.103300  -0.098040
     6  C   -0.510950   0.043562  -0.004504   0.003966  -0.098040   6.883092
     7  H    0.021008  -0.001766  -0.000184   0.000366  -0.026119   0.332218
     8  H    0.018100   0.000222  -0.000199  -0.000116  -0.065849   0.386914
     9  H   -0.014469  -0.000114   0.000155  -0.000169   0.003650   0.254997
    10  O   -0.182939   0.007730  -0.002996  -0.000252   0.506201  -0.166802
    11  O   -0.021846   0.000726  -0.000276   0.000568   0.041959  -0.225214
    12  H   -0.000253  -0.000002   0.000001  -0.000005   0.000087   0.014186
               7          8          9         10         11         12
     1  C    0.021008   0.018100  -0.014469  -0.182939  -0.021846  -0.000253
     2  H   -0.001766   0.000222  -0.000114   0.007730   0.000726  -0.000002
     3  H   -0.000184  -0.000199   0.000155  -0.002996  -0.000276   0.000001
     4  H    0.000366  -0.000116  -0.000169  -0.000252   0.000568  -0.000005
     5  C   -0.026119  -0.065849   0.003650   0.506201   0.041959   0.000087
     6  C    0.332218   0.386914   0.254997  -0.166802  -0.225214   0.014186
     7  H    0.521065  -0.031132  -0.014473   0.005257   0.003135   0.000172
     8  H   -0.031132   0.518641  -0.012086  -0.001092  -0.000894  -0.000403
     9  H   -0.014473  -0.012086   0.351509  -0.005759   0.046089  -0.005244
    10  O    0.005257  -0.001092  -0.005759   8.490046   0.001672  -0.000513
    11  O    0.003135  -0.000894   0.046089   0.001672   9.091168   0.180033
    12  H    0.000172  -0.000403  -0.005244  -0.000513   0.180033   0.386809
 Mulliken charges:
               1
     1  C   -0.730687
     2  H    0.209614
     3  H    0.223608
     4  H    0.215072
     5  C    0.564099
     6  C   -0.913425
     7  H    0.190451
     8  H    0.187894
     9  H    0.395913
    10  O   -0.650552
    11  O   -1.117121
    12  H    0.425132
 Sum of Mulliken charges =  -1.00000
 Mulliken charges with hydrogens summed into heavy atoms:
               1
     1  C   -0.082392
     5  C    0.564099
     6  C   -0.535080
    10  O   -0.650552
    11  O   -0.296075
 APT charges:
               1
     1  C   -1.312766
     2  H    0.365381
     3  H    0.537949
     4  H    0.443350
     5  C    0.237552
     6  C   -1.246742
     7  H    0.408745
     8  H    0.431688
     9  H    0.453333
    10  O   -0.546976
    11  O   -1.351980
    12  H    0.580466
 Sum of APT charges =  -1.00000
 APT charges with hydrogens summed into heavy atoms:
               1
     1  C    0.033914
     5  C    0.237552
     6  C   -0.406309
    10  O   -0.546976
    11  O   -0.318181
 Electronic spatial extent (au):  <R**2>=            620.5427
 Charge=             -1.0000 electrons
 Dipole moment (field-independent basis, Debye):
    X=             -5.1893    Y=              1.7167    Z=              1.5868  Tot=              5.6916
 Quadrupole moment (field-independent basis, Debye-Ang):
   XX=            -60.0849   YY=            -40.2260   ZZ=            -36.2347
   XY=            -11.3539   XZ=             -1.5975   YZ=              0.1930
 Traceless Quadrupole moment (field-independent basis, Debye-Ang):
   XX=            -14.5697   YY=              5.2892   ZZ=              9.2805
   XY=            -11.3539   XZ=             -1.5975   YZ=              0.1930
 Octapole moment (field-independent basis, Debye-Ang**2):
  XXX=            -61.4192  YYY=              4.0721  ZZZ=             -5.0951  XYY=              4.0422
  XXY=            -10.6907  XXZ=              3.8811  XZZ=              1.6925  YZZ=             -0.0415
  YYZ=              3.0552  XYZ=              8.0211
 Hexadecapole moment (field-independent basis, Debye-Ang**3):
 XXXX=           -725.0945 YYYY=           -201.7432 ZZZZ=           -134.8787 XXXY=            -57.5382
 XXXZ=             -8.4482 YYYX=            -10.1039 YYYZ=              0.7810 ZZZX=             -2.7494
 ZZZY=              4.3598 XXYY=           -134.9855 XXZZ=           -109.9271 YYZZ=            -54.4002
 XXYZ=             11.5078 YYXZ=             -2.3265 ZZXY=             -7.8582
 N-N= 1.680965688732D+02 E-N=-9.738742102918D+02  KE= 2.664718119294D+02
  Exact polarizability:       0.000       0.000       0.000       0.000       0.000       0.000
 Approx polarizability:     104.398       9.817      73.695       4.588       5.585      70.160
 PrsmSu:  requested number of processors reduced to:  30 ShMem   1 Linda.
 PrsmSu:  requested number of processors reduced to:  31 ShMem   1 Linda.
 D2PCM: PCM CHGder 2nd derivatives, FixD1E=F FixD2E=F DoIter=F DoCFld=F I1PDM=0
 CoulSu:  requested number of processors reduced to:  30 ShMem   1 Linda.
 CoulSu:  requested number of processors reduced to:  30 ShMem   1 Linda.
 CoulSu:  requested number of processors reduced to:  29 ShMem   1 Linda.
 CoulSu:  requested number of processors reduced to:  30 ShMem   1 Linda.
 CoulSu:  requested number of processors reduced to:  29 ShMem   1 Linda.
 CoulSu:  requested number of processors reduced to:  29 ShMem   1 Linda.
 CoulSu:  requested number of processors reduced to:  30 ShMem   1 Linda.
 CoulSu:  requested number of processors reduced to:  30 ShMem   1 Linda.
 CoulSu:  requested number of processors reduced to:  30 ShMem   1 Linda.
 CoulSu:  requested number of processors reduced to:  30 ShMem   1 Linda.
 CoulSu:  requested number of processors reduced to:  29 ShMem   1 Linda.
 CoulSu:  requested number of processors reduced to:  30 ShMem   1 Linda.
 CoulSu:  requested number of processors reduced to:  30 ShMem   1 Linda.
 CoulSu:  requested number of processors reduced to:  29 ShMem   1 Linda.
 CoulSu:  requested number of processors reduced to:  30 ShMem   1 Linda.
 CoulSu:  requested number of processors reduced to:  30 ShMem   1 Linda.
 Calling FoFJK, ICntrl=    100127 FMM=F ISym2X=0 I1Cent= 0 IOpClX= 0 NMat=1 NMatS=1 NMatT=0.
 CoulSu:  requested number of processors reduced to:  31 ShMem   1 Linda.
 -------------------------------------------------------------------
 Center     Atomic                   Forces (Hartrees/Bohr)
 Number     Number              X              Y              Z
 -------------------------------------------------------------------
      1        6          -0.000005130   -0.000001420    0.000002406
      2        1          -0.000004462   -0.000002530    0.000012882
      3        1          -0.000002621   -0.000008854    0.000000873
      4        1           0.000000716    0.000008067    0.000003514
      5        6          -0.000000316   -0.000001342   -0.000005304
      6        6           0.000008599   -0.000007911    0.000000318
      7        1          -0.000008147   -0.000013132    0.000003118
      8        1           0.000000046   -0.000010094   -0.000011497
      9        1          -0.000003476    0.000003512    0.000002801
     10        8           0.000005432    0.000003420   -0.000017011
     11        8           0.000000038    0.000010398    0.000004712
     12        1           0.000009320    0.000019885    0.000003188
 -------------------------------------------------------------------
 Cartesian Forces:  Max     0.000019885 RMS     0.000007500
 IRC-IRC-IRC-IRC-IRC-IRC-IRC-IRC-IRC-IRC-IRC-IRC-IRC-IRC-IRC-IRC-IRC-IRC
          ******** Start new reaction path calculation ********
 Supplied step size of   0.1000 bohr.
    Integration on MW PES will use step size of   0.1049 sqrt(amu)*bohr.
 Point Number:   0          Path Number:   1
 Calculating another point on the path.
 IRC-IRC-IRC-IRC-IRC-IRC-IRC-IRC-IRC-IRC-IRC-IRC-IRC-IRC-IRC-IRC-IRC-IRC
                          Input orientation:                          
 ---------------------------------------------------------------------
 Center     Atomic      Atomic             Coordinates (Angstroms)
 Number     Number       Type             X           Y           Z
 ---------------------------------------------------------------------
      1          6           0       -1.385603    1.202195   -0.143361
      2          1           0       -0.735357    2.024416    0.170595
      3          1           0       -2.327863    1.282645    0.415263
      4          1           0       -1.622278    1.306762   -1.207512
      5          6           0       -0.768809   -0.166182    0.126050
      6          6           0        0.360875   -0.225929    1.027050
      7          1           0        0.375085    0.561353    1.787837
      8          1           0        0.536476   -1.220632    1.448775
      9          1           0        1.396760    0.032288    0.309279
     10          8           0       -1.218836   -1.154530   -0.497086
     11          8           0        2.547178    0.321803   -0.381331
     12          1           0        2.650770   -0.416386   -1.005911
 ---------------------------------------------------------------------
                    Distance matrix (angstroms):
                    1          2          3          4          5
     1  C    0.000000
     2  H    1.094274   0.000000
     3  H    1.098356   1.773742   0.000000
     4  H    1.095157   1.789088   1.769698   0.000000
     5  C    1.524949   2.191306   2.147880   2.162489   0.000000
     6  C    2.541571   2.645618   3.143150   3.357872   1.446222
     7  H    2.690767   2.447266   3.116111   3.676576   2.144607
     8  H    3.478415   3.712363   3.941951   4.254856   2.136641
     9  H    3.052066   2.921255   3.930323   3.611029   2.182350
    10  O    2.388950   3.284090   2.828805   2.593342   1.252060
    11  O    4.037138   3.738790   5.032276   4.363150   3.389887
    12  H    4.433520   4.336766   5.449149   4.611813   3.610743
                    6          7          8          9         10
     6  C    0.000000
     7  H    1.094902   0.000000
     8  H    1.094587   1.821120   0.000000
     9  H    1.286440   1.873462   1.899565   0.000000
    10  O    2.383438   3.271958   2.621424   2.983304   0.000000
    11  O    2.657719   3.079068   3.125911   1.372670   4.046704
    12  H    3.068033   3.733596   3.338044   1.871784   3.972104
                   11         12
    11  O    0.000000
    12  H    0.972499   0.000000
 Symmetry turned off by external request.
 Stoichiometry    C3H7O2(1-)
 Framework group  C1[X(C3H7O2)]
 Deg. of freedom    30
 Full point group                 C1      NOp   1
 Rotational constants (GHZ):           6.4991633           2.4613505           2.2147339
 Standard basis: 6-31+G(d) (6D, 7F)
   109 basis functions,   188 primitive gaussians,   109 cartesian basis functions
    21 alpha electrons       21 beta electrons
       nuclear repulsion energy       168.1212784666 Hartrees.
 NAtoms=   12 NActive=   12 NUniq=   12 SFac= 1.00D+00 NAtFMM=   60 NAOKFM=F Big=F
 Integral buffers will be    131072 words long.
 Raffenetti 2 integral format.
 Two-electron integral symmetry is turned off.
 Nuclear repulsion after empirical dispersion term =      168.1091074628 Hartrees.
 Force inversion solution in PCM.
 ------------------------------------------------------------------------------
 Polarizable Continuum Model (PCM)
 =================================
 Model                : PCM.
 Atomic radii         : UFF (Universal Force Field).
 Polarization charges : Total charges.
 Charge compensation  : None.
 Solution method      : Matrix inversion.
 Cavity type          : Scaled VdW (van der Waals Surface) (Alpha=1.100).
 Cavity algorithm     : GePol (No added spheres)
                        Default sphere list used, NSphG=   12.
                        Lebedev-Laikov grids with approx.  5.0 points / Ang**2.
                        Smoothing algorithm: York/Karplus (Gamma=1.0000).
                        Polarization charges: spherical gaussians, with
                                              point-specific exponents (IZeta= 3).
                        Self-potential: point-specific (ISelfS= 7).
                        Self-field    : sphere-specific E.n sum rule (ISelfD= 2).
 1st derivatives      : Analytical E(r).r(x)/FMM algorithm (CHGder, D1EAlg=3).
                        Cavity 1st derivative terms included.
 Solvent              : Water, Eps=  78.355300 Eps(inf)=   1.777849
 ------------------------------------------------------------------------------
 Spheres list:
 ISph  on   Nord     Re0    Alpha      Xe            Ye            Ze
    1   C      1    1.9255  1.100     -1.385603      1.202195     -0.143361
    2   H      2    1.4430  1.100     -0.735357      2.024416      0.170595
    3   H      3    1.4430  1.100     -2.327863      1.282645      0.415263
    4   H      4    1.4430  1.100     -1.622278      1.306762     -1.207512
    5   C      5    1.9255  1.100     -0.768809     -0.166182      0.126050
    6   C      6    1.9255  1.100      0.360875     -0.225929      1.027050
    7   H      7    1.4430  1.100      0.375085      0.561353      1.787837
    8   H      8    1.4430  1.100      0.536476     -1.220632      1.448775
    9   H      9    1.4430  1.100      1.396760      0.032288      0.309279
   10   O     10    1.7500  1.100     -1.218836     -1.154530     -0.497086
   11   O     11    1.7500  1.100      2.547178      0.321803     -0.381331
   12   H     12    1.4430  1.100      2.650770     -0.416386     -1.005911
 ------------------------------------------------------------------------------
 One-electron integrals computed using PRISM.
 PrsmSu:  requested number of processors reduced to:  30 ShMem   1 Linda.
 NBasis=   109 RedAO= T EigKep=  1.38D-04  NBF=   109
 NBsUse=   109 1.00D-06 EigRej= -1.00D+00 NBFU=   109
 Initial guess from the checkpoint file:  "IRCOH.chk"
 B after Tr=     0.006411    0.081541    0.043760
         Rot=    1.000000   -0.000041    0.000139    0.000034 Ang=  -0.02 deg.
 ExpMin= 4.38D-02 ExpMax= 5.48D+03 ExpMxC= 8.25D+02 IAcc=3 IRadAn=         5 AccDes= 0.00D+00
 Harris functional with IExCor=  402 and IRadAn=       5 diagonalized for initial guess.
 HarFok:  IExCor=  402 AccDes= 0.00D+00 IRadAn=         5 IDoV= 1 UseB2=F ITyADJ=14
 ICtDFT=  3500011 ScaDFX=  1.000000  1.000000  1.000000  1.000000
 FoFCou: FMM=F IPFlag=           0 FMFlag=      100000 FMFlg1=           0
         NFxFlg=           0 DoJE=T BraDBF=F KetDBF=T FulRan=T
         wScrn=  0.000000 ICntrl=       500 IOpCl=  0 I1Cent=   200000004 NGrid=           0
         NMat0=    1 NMatS0=      1 NMatT0=    0 NMatD0=    1 NMtDS0=    0 NMtDT0=    0
 Symmetry not used in FoFCou.
 Keep R1 ints in memory in canonical form, NReq=47890873.
 Requested convergence on RMS density matrix=1.00D-08 within 128 cycles.
 Requested convergence on MAX density matrix=1.00D-06.
 Requested convergence on             energy=1.00D-06.
 No special actions if energy rises.
 Inv3:  Mode=1 IEnd=     3878307.
 Iteration    1 A*A^-1 deviation from unit magnitude is 3.66D-15 for   1130.
 Iteration    1 A*A^-1 deviation from orthogonality  is 1.94D-15 for   1093    318.
 Iteration    1 A^-1*A deviation from unit magnitude is 3.66D-15 for   1130.
 Iteration    1 A^-1*A deviation from orthogonality  is 2.11D-15 for   1134    217.
 Error on total polarization charges =  0.02295
 SCF Done:  E(RB3LYP) =  -269.107074448     A.U. after   11 cycles
            NFock= 11  Conv=0.58D-08     -V/T= 2.0098
 DoSCS=F DFT=T ScalE2(SS,OS)=  1.000000  1.000000
 Range of M.O.s used for correlation:     1   109
 NBasis=   109 NAE=    21 NBE=    21 NFC=     0 NFV=     0
 NROrb=    109 NOA=    21 NOB=    21 NVA=    88 NVB=    88

 **** Warning!!: The largest alpha MO coefficient is  0.29945195D+02

 Symmetrizing basis deriv contribution to polar:
 IMax=3 JMax=2 DiffMx= 0.00D+00
 PrsmSu:  requested number of processors reduced to:  30 ShMem   1 Linda.
 D1PCM: PCM CHGder 1st derivatives, ID1Alg=3 FixD1E=F DoIter=F DoCFld=F I1PDM=0.
 CoulSu:  requested number of processors reduced to:  29 ShMem   1 Linda.
 CoulSu:  requested number of processors reduced to:  30 ShMem   1 Linda.
 Calling FoFJK, ICntrl=      2127 FMM=F ISym2X=0 I1Cent= 0 IOpClX= 0 NMat=1 NMatS=1 NMatT=0.
 -------------------------------------------------------------------
 Center     Atomic                   Forces (Hartrees/Bohr)
 Number     Number              X              Y              Z
 -------------------------------------------------------------------
      1        6          -0.000044099   -0.000076327   -0.000191252
      2        1           0.000060191   -0.000083188    0.000010718
      3        1           0.000056454   -0.000022236    0.000091263
      4        1          -0.000080273   -0.000006393    0.000020039
      5        6          -0.002651427   -0.000302372   -0.001899469
      6        6           0.002179034   -0.000280618    0.000635064
      7        1          -0.000630799   -0.000308136    0.000336912
      8        1          -0.000462336   -0.000038288    0.000242590
      9        1          -0.003710831   -0.000908802    0.002523175
     10        8           0.000803730    0.000953922    0.001073822
     11        8           0.004279895    0.001030734   -0.002718736
     12        1           0.000200461    0.000041704   -0.000124126
 -------------------------------------------------------------------
 Cartesian Forces:  Max     0.004279895 RMS     0.001368439
 IRC-IRC-IRC-IRC-IRC-IRC-IRC-IRC-IRC-IRC-IRC-IRC-IRC-IRC-IRC-IRC-IRC-IRC
 Pt  1 Step number   1 out of a maximum of  20
 Modified Bulirsch-Stoer Extrapolation Cycles:
    EPS =    0.000010000000000
      PEZero:  N= 2 I= 1 D=  2.73D-04 Err=  6.04D-04
      PEZero:  N= 3 I= 2 D=  2.73D-04 Err=  4.02D-04
      PEZero:  N= 3 I= 1 D=  5.46D-04 Err=  7.01D-08
 Maximum DWI energy   std dev =  0.000004934 at pt    31
 Maximum DWI gradient std dev =  0.057082712 at pt     1
 CORRECTOR INTEGRATION CONVERGENCE:
   Recorrection delta-x convergence threshold:    0.010000
   Delta-x Convergence Met
 Point Number:   1          Path Number:   1
   CHANGE IN THE REACTION COORDINATE =    0.10478
   NET REACTION COORDINATE UP TO THIS POINT =    0.10478
  # OF POINTS ALONG THE PATH =   1
  # OF STEPS =   1

 Calculating another point on the path.
 IRC-IRC-IRC-IRC-IRC-IRC-IRC-IRC-IRC-IRC-IRC-IRC-IRC-IRC-IRC-IRC-IRC-IRC
                          Input orientation:                          
 ---------------------------------------------------------------------
 Center     Atomic      Atomic             Coordinates (Angstroms)
 Number     Number       Type             X           Y           Z
 ---------------------------------------------------------------------
      1          6           0       -1.385688    1.202145   -0.143568
      2          1           0       -0.734646    2.023443    0.170674
      3          1           0       -2.327218    1.282467    0.416279
      4          1           0       -1.623271    1.306827   -1.207332
      5          6           0       -0.771215   -0.166401    0.124418
      6          6           0        0.362637   -0.226251    1.027766
      7          1           0        0.367768    0.558025    1.792136
      8          1           0        0.531017   -1.221365    1.451669
      9          1           0        1.356119    0.022210    0.337253
     10          8           0       -1.218322   -1.153938   -0.496396
     11          8           0        2.550392    0.322589   -0.383367
     12          1           0        2.653233   -0.416026   -1.007563
 ---------------------------------------------------------------------
                    Distance matrix (angstroms):
                    1          2          3          4          5
     1  C    0.000000
     2  H    1.094136   0.000000
     3  H    1.098344   1.773599   0.000000
     4  H    1.094988   1.789440   1.769815   0.000000
     5  C    1.523913   2.190637   2.146053   2.161008   0.000000
     6  C    2.543418   2.645705   3.144116   3.360033   1.450945
     7  H    2.690064   2.447836   3.111389   3.677193   2.145544
     8  H    3.477346   3.711014   3.938364   4.254762   2.137839
     9  H    3.023399   2.898962   3.893772   3.593432   2.146258
    10  O    2.388226   3.282480   2.828196   2.593217   1.249217
    11  O    4.040278   3.740500   5.035065   4.366590   3.395590
    12  H    4.435972   4.337854   5.451339   4.614826   3.615320
                    6          7          8          9         10
     6  C    0.000000
     7  H    1.095160   0.000000
     8  H    1.094668   1.819010   0.000000
     9  H    1.235131   1.838647   1.862578   0.000000
    10  O    2.383927   3.268620   2.619101   2.950600   0.000000
    11  O    2.660601   3.090646   3.135128   1.426818   4.049211
    12  H    3.070084   3.743053   3.346670   1.919137   3.974260
                   11         12
    11  O    0.000000
    12  H    0.972497   0.000000
 Symmetry turned off by external request.
 Stoichiometry    C3H7O2(1-)
 Framework group  C1[X(C3H7O2)]
 Deg. of freedom    30
 Full point group                 C1      NOp   1
 Rotational constants (GHZ):           6.4947719           2.4581054           2.2130893
 Standard basis: 6-31+G(d) (6D, 7F)
   109 basis functions,   188 primitive gaussians,   109 cartesian basis functions
    21 alpha electrons       21 beta electrons
       nuclear repulsion energy       168.1291475136 Hartrees.
 NAtoms=   12 NActive=   12 NUniq=   12 SFac= 1.00D+00 NAtFMM=   60 NAOKFM=F Big=F
 Integral buffers will be    131072 words long.
 Raffenetti 2 integral format.
 Two-electron integral symmetry is turned off.
 Nuclear repulsion after empirical dispersion term =      168.1169689180 Hartrees.
 Force inversion solution in PCM.
 ------------------------------------------------------------------------------
 Polarizable Continuum Model (PCM)
 =================================
 Model                : PCM.
 Atomic radii         : UFF (Universal Force Field).
 Polarization charges : Total charges.
 Charge compensation  : None.
 Solution method      : Matrix inversion.
 Cavity type          : Scaled VdW (van der Waals Surface) (Alpha=1.100).
 Cavity algorithm     : GePol (No added spheres)
                        Default sphere list used, NSphG=   12.
                        Lebedev-Laikov grids with approx.  5.0 points / Ang**2.
                        Smoothing algorithm: York/Karplus (Gamma=1.0000).
                        Polarization charges: spherical gaussians, with
                                              point-specific exponents (IZeta= 3).
                        Self-potential: point-specific (ISelfS= 7).
                        Self-field    : sphere-specific E.n sum rule (ISelfD= 2).
 1st derivatives      : Analytical E(r).r(x)/FMM algorithm (CHGder, D1EAlg=3).
                        Cavity 1st derivative terms included.
 Solvent              : Water, Eps=  78.355300 Eps(inf)=   1.777849
 ------------------------------------------------------------------------------
 Spheres list:
 ISph  on   Nord     Re0    Alpha      Xe            Ye            Ze
    1   C      1    1.9255  1.100     -1.385688      1.202145     -0.143568
    2   H      2    1.4430  1.100     -0.734646      2.023443      0.170674
    3   H      3    1.4430  1.100     -2.327218      1.282467      0.416279
    4   H      4    1.4430  1.100     -1.623271      1.306827     -1.207332
    5   C      5    1.9255  1.100     -0.771215     -0.166401      0.124418
    6   C      6    1.9255  1.100      0.362637     -0.226251      1.027766
    7   H      7    1.4430  1.100      0.367768      0.558025      1.792136
    8   H      8    1.4430  1.100      0.531017     -1.221365      1.451669
    9   H      9    1.4430  1.100      1.356119      0.022210      0.337253
   10   O     10    1.7500  1.100     -1.218322     -1.153938     -0.496396
   11   O     11    1.7500  1.100      2.550392      0.322589     -0.383367
   12   H     12    1.4430  1.100      2.653233     -0.416026     -1.007563
 ------------------------------------------------------------------------------
 One-electron integrals computed using PRISM.
 PrsmSu:  requested number of processors reduced to:  30 ShMem   1 Linda.
 NBasis=   109 RedAO= T EigKep=  1.41D-04  NBF=   109
 NBsUse=   109 1.00D-06 EigRej= -1.00D+00 NBFU=   109
 Initial guess from the checkpoint file:  "IRCOH.chk"
 B after Tr=    -0.001150   -0.000334    0.000784
         Rot=    1.000000   -0.000068    0.000149    0.000031 Ang=  -0.02 deg.
 ExpMin= 4.38D-02 ExpMax= 5.48D+03 ExpMxC= 8.25D+02 IAcc=3 IRadAn=         5 AccDes= 0.00D+00
 Harris functional with IExCor=  402 and IRadAn=       5 diagonalized for initial guess.
 HarFok:  IExCor=  402 AccDes= 0.00D+00 IRadAn=         5 IDoV= 1 UseB2=F ITyADJ=14
 ICtDFT=  3500011 ScaDFX=  1.000000  1.000000  1.000000  1.000000
 FoFCou: FMM=F IPFlag=           0 FMFlag=      100000 FMFlg1=           0
         NFxFlg=           0 DoJE=T BraDBF=F KetDBF=T FulRan=T
         wScrn=  0.000000 ICntrl=       500 IOpCl=  0 I1Cent=   200000004 NGrid=           0
         NMat0=    1 NMatS0=      1 NMatT0=    0 NMatD0=    1 NMtDS0=    0 NMtDT0=    0
 Symmetry not used in FoFCou.
 Keep R1 ints in memory in canonical form, NReq=47890873.
 Requested convergence on RMS density matrix=1.00D-08 within 128 cycles.
 Requested convergence on MAX density matrix=1.00D-06.
 Requested convergence on             energy=1.00D-06.
 No special actions if energy rises.
 Inv3:  Mode=1 IEnd=     3891963.
 Iteration    1 A*A^-1 deviation from unit magnitude is 3.77D-15 for    379.
 Iteration    1 A*A^-1 deviation from orthogonality  is 2.14D-15 for   1119    168.
 Iteration    1 A^-1*A deviation from unit magnitude is 3.55D-15 for    379.
 Iteration    1 A^-1*A deviation from orthogonality  is 3.71D-15 for    997    973.
 Error on total polarization charges =  0.02324
 SCF Done:  E(RB3LYP) =  -269.107703322     A.U. after   11 cycles
            NFock= 11  Conv=0.52D-08     -V/T= 2.0098
 DoSCS=F DFT=T ScalE2(SS,OS)=  1.000000  1.000000
 Range of M.O.s used for correlation:     1   109
 NBasis=   109 NAE=    21 NBE=    21 NFC=     0 NFV=     0
 NROrb=    109 NOA=    21 NOB=    21 NVA=    88 NVB=    88

 **** Warning!!: The largest alpha MO coefficient is  0.29947605D+02

 Symmetrizing basis deriv contribution to polar:
 IMax=3 JMax=2 DiffMx= 0.00D+00
 PrsmSu:  requested number of processors reduced to:  30 ShMem   1 Linda.
 D1PCM: PCM CHGder 1st derivatives, ID1Alg=3 FixD1E=F DoIter=F DoCFld=F I1PDM=0.
 CoulSu:  requested number of processors reduced to:  29 ShMem   1 Linda.
 CoulSu:  requested number of processors reduced to:  30 ShMem   1 Linda.
 Calling FoFJK, ICntrl=      2127 FMM=F ISym2X=0 I1Cent= 0 IOpClX= 0 NMat=1 NMatS=1 NMatT=0.
 -------------------------------------------------------------------
 Center     Atomic                   Forces (Hartrees/Bohr)
 Number     Number              X              Y              Z
 -------------------------------------------------------------------
      1        6          -0.000175214   -0.000097845   -0.000380447
      2        1           0.000123001   -0.000147597   -0.000005127
      3        1           0.000099795   -0.000010172    0.000162990
      4        1          -0.000162530    0.000000521    0.000021537
      5        6          -0.004552875   -0.000333916   -0.003071821
      6        6           0.001159847   -0.001125124    0.002897370
      7        1          -0.001129630   -0.000546332    0.000624427
      8        1          -0.000859535   -0.000081377    0.000455313
      9        1          -0.004157753   -0.001041124    0.003009969
     10        8           0.001233113    0.001399138    0.001697734
     11        8           0.008018848    0.001931974   -0.005143625
     12        1           0.000402934    0.000051855   -0.000268320
 -------------------------------------------------------------------
 Cartesian Forces:  Max     0.008018848 RMS     0.002192186
 IRC-IRC-IRC-IRC-IRC-IRC-IRC-IRC-IRC-IRC-IRC-IRC-IRC-IRC-IRC-IRC-IRC-IRC
 Pt  2 Step number   1 out of a maximum of  20
 Modified Bulirsch-Stoer Extrapolation Cycles:
    EPS =    0.000010000000000
      PEZero:  N= 2 I= 1 D=  5.46D-04 Err=  8.29D-05
      PEZero:  N= 3 I= 2 D=  5.46D-04 Err=  5.53D-05
      PEZero:  N= 3 I= 1 D=  1.09D-03 Err=  1.28D-07
 Maximum DWI energy   std dev =  0.000020056 at pt    36
 Maximum DWI gradient std dev =  0.074866428 at pt    28
 CORRECTOR INTEGRATION CONVERGENCE:
   Recorrection delta-x convergence threshold:    0.010000
   Delta-x Convergence Met
 Point Number:   2          Path Number:   1
   CHANGE IN THE REACTION COORDINATE =    0.10447
   NET REACTION COORDINATE UP TO THIS POINT =    0.20925
  # OF POINTS ALONG THE PATH =   2
  # OF STEPS =   1

 Calculating another point on the path.
 IRC-IRC-IRC-IRC-IRC-IRC-IRC-IRC-IRC-IRC-IRC-IRC-IRC-IRC-IRC-IRC-IRC-IRC
                          Input orientation:                          
 ---------------------------------------------------------------------
 Center     Atomic      Atomic             Coordinates (Angstroms)
 Number     Number       Type             X           Y           Z
 ---------------------------------------------------------------------
      1          6           0       -1.385932    1.202124   -0.143946
      2          1           0       -0.733311    2.021928    0.170414
      3          1           0       -2.326238    1.282655    0.417925
      4          1           0       -1.625132    1.307098   -1.207161
      5          6           0       -0.774586   -0.166497    0.122380
      6          6           0        0.362571   -0.227338    1.030552
      7          1           0        0.356482    0.553142    1.799168
      8          1           0        0.522147   -1.223042    1.456534
      9          1           0        1.322342    0.013509    0.363037
     10          8           0       -1.217723   -1.153318   -0.495575
     11          8           0        2.555621    0.323854   -0.386739
     12          1           0        2.657495   -0.415427   -1.010355
 ---------------------------------------------------------------------
                    Distance matrix (angstroms):
                    1          2          3          4          5
     1  C    0.000000
     2  H    1.093991   0.000000
     3  H    1.098344   1.773472   0.000000
     4  H    1.094834   1.789984   1.770042   0.000000
     5  C    1.522432   2.189342   2.143598   2.159303   0.000000
     6  C    2.545598   2.645750   3.144055   3.363453   1.456572
     7  H    2.689400   2.449044   3.104352   3.678757   2.146814
     8  H    3.476166   3.709462   3.933258   4.255312   2.139572
     9  H    3.000764   2.880375   3.863402   3.581410   2.118354
    10  O    2.387477   3.280303   2.827941   2.593450   1.245815
    11  O    4.045510   3.743120   5.039775   4.372477   3.404398
    12  H    4.440320   4.339640   5.455369   4.620251   3.622738
                    6          7          8          9         10
     6  C    0.000000
     7  H    1.095426   0.000000
     8  H    1.094692   1.816500   0.000000
     9  H    1.193626   1.812887   1.834422   0.000000
    10  O    2.384078   3.264349   2.615863   2.924146   0.000000
    11  O    2.668707   3.109176   3.150486   1.476298   4.053642
    12  H    3.076907   3.758485   3.361175   1.962862   3.978291
                   11         12
    11  O    0.000000
    12  H    0.972529   0.000000
 Symmetry turned off by external request.
 Stoichiometry    C3H7O2(1-)
 Framework group  C1[X(C3H7O2)]
 Deg. of freedom    30
 Full point group                 C1      NOp   1
 Rotational constants (GHZ):           6.4830202           2.4514935           2.2095019
 Standard basis: 6-31+G(d) (6D, 7F)
   109 basis functions,   188 primitive gaussians,   109 cartesian basis functions
    21 alpha electrons       21 beta electrons
       nuclear repulsion energy       168.0935201588 Hartrees.
 NAtoms=   12 NActive=   12 NUniq=   12 SFac= 1.00D+00 NAtFMM=   60 NAOKFM=F Big=F
 Integral buffers will be    131072 words long.
 Raffenetti 2 integral format.
 Two-electron integral symmetry is turned off.
 Nuclear repulsion after empirical dispersion term =      168.0813419138 Hartrees.
 Force inversion solution in PCM.
 ------------------------------------------------------------------------------
 Polarizable Continuum Model (PCM)
 =================================
 Model                : PCM.
 Atomic radii         : UFF (Universal Force Field).
 Polarization charges : Total charges.
 Charge compensation  : None.
 Solution method      : Matrix inversion.
 Cavity type          : Scaled VdW (van der Waals Surface) (Alpha=1.100).
 Cavity algorithm     : GePol (No added spheres)
                        Default sphere list used, NSphG=   12.
                        Lebedev-Laikov grids with approx.  5.0 points / Ang**2.
                        Smoothing algorithm: York/Karplus (Gamma=1.0000).
                        Polarization charges: spherical gaussians, with
                                              point-specific exponents (IZeta= 3).
                        Self-potential: point-specific (ISelfS= 7).
                        Self-field    : sphere-specific E.n sum rule (ISelfD= 2).
 1st derivatives      : Analytical E(r).r(x)/FMM algorithm (CHGder, D1EAlg=3).
                        Cavity 1st derivative terms included.
 Solvent              : Water, Eps=  78.355300 Eps(inf)=   1.777849
 ------------------------------------------------------------------------------
 Spheres list:
 ISph  on   Nord     Re0    Alpha      Xe            Ye            Ze
    1   C      1    1.9255  1.100     -1.385932      1.202124     -0.143946
    2   H      2    1.4430  1.100     -0.733311      2.021928      0.170414
    3   H      3    1.4430  1.100     -2.326238      1.282655      0.417925
    4   H      4    1.4430  1.100     -1.625132      1.307098     -1.207161
    5   C      5    1.9255  1.100     -0.774586     -0.166497      0.122380
    6   C      6    1.9255  1.100      0.362571     -0.227338      1.030552
    7   H      7    1.4430  1.100      0.356482      0.553142      1.799168
    8   H      8    1.4430  1.100      0.522147     -1.223042      1.456534
    9   H      9    1.4430  1.100      1.322342      0.013509      0.363037
   10   O     10    1.7500  1.100     -1.217723     -1.153318     -0.495575
   11   O     11    1.7500  1.100      2.555621      0.323854     -0.386739
   12   H     12    1.4430  1.100      2.657495     -0.415427     -1.010355
 ------------------------------------------------------------------------------
 One-electron integrals computed using PRISM.
 PrsmSu:  requested number of processors reduced to:  30 ShMem   1 Linda.
 NBasis=   109 RedAO= T EigKep=  1.45D-04  NBF=   109
 NBsUse=   109 1.00D-06 EigRej= -1.00D+00 NBFU=   109
 Initial guess from the checkpoint file:  "IRCOH.chk"
 B after Tr=    -0.001129   -0.000355    0.000826
         Rot=    1.000000   -0.000085    0.000160    0.000035 Ang=  -0.02 deg.
 ExpMin= 4.38D-02 ExpMax= 5.48D+03 ExpMxC= 8.25D+02 IAcc=3 IRadAn=         5 AccDes= 0.00D+00
 Harris functional with IExCor=  402 and IRadAn=       5 diagonalized for initial guess.
 HarFok:  IExCor=  402 AccDes= 0.00D+00 IRadAn=         5 IDoV= 1 UseB2=F ITyADJ=14
 ICtDFT=  3500011 ScaDFX=  1.000000  1.000000  1.000000  1.000000
 FoFCou: FMM=F IPFlag=           0 FMFlag=      100000 FMFlg1=           0
         NFxFlg=           0 DoJE=T BraDBF=F KetDBF=T FulRan=T
         wScrn=  0.000000 ICntrl=       500 IOpCl=  0 I1Cent=   200000004 NGrid=           0
         NMat0=    1 NMatS0=      1 NMatT0=    0 NMatD0=    1 NMtDS0=    0 NMtDT0=    0
 Symmetry not used in FoFCou.
 Keep R1 ints in memory in canonical form, NReq=47890873.
 Requested convergence on RMS density matrix=1.00D-08 within 128 cycles.
 Requested convergence on MAX density matrix=1.00D-06.
 Requested convergence on             energy=1.00D-06.
 No special actions if energy rises.
 Inv3:  Mode=1 IEnd=     3946827.
 Iteration    1 A*A^-1 deviation from unit magnitude is 4.00D-15 for   1126.
 Iteration    1 A*A^-1 deviation from orthogonality  is 2.14D-15 for   1080    297.
 Iteration    1 A^-1*A deviation from unit magnitude is 4.00D-15 for   1126.
 Iteration    1 A^-1*A deviation from orthogonality  is 4.66D-15 for   1147    243.
 Error on total polarization charges =  0.02352
 SCF Done:  E(RB3LYP) =  -269.108323432     A.U. after   11 cycles
            NFock= 11  Conv=0.41D-08     -V/T= 2.0097
 DoSCS=F DFT=T ScalE2(SS,OS)=  1.000000  1.000000
 Range of M.O.s used for correlation:     1   109
 NBasis=   109 NAE=    21 NBE=    21 NFC=     0 NFV=     0
 NROrb=    109 NOA=    21 NOB=    21 NVA=    88 NVB=    88

 **** Warning!!: The largest alpha MO coefficient is  0.29929897D+02

 Symmetrizing basis deriv contribution to polar:
 IMax=3 JMax=2 DiffMx= 0.00D+00
 PrsmSu:  requested number of processors reduced to:  30 ShMem   1 Linda.
 D1PCM: PCM CHGder 1st derivatives, ID1Alg=3 FixD1E=F DoIter=F DoCFld=F I1PDM=0.
 CoulSu:  requested number of processors reduced to:  29 ShMem   1 Linda.
 CoulSu:  requested number of processors reduced to:  30 ShMem   1 Linda.
 Calling FoFJK, ICntrl=      2127 FMM=F ISym2X=0 I1Cent= 0 IOpClX= 0 NMat=1 NMatS=1 NMatT=0.
 -------------------------------------------------------------------
 Center     Atomic                   Forces (Hartrees/Bohr)
 Number     Number              X              Y              Z
 -------------------------------------------------------------------
      1        6          -0.000433046    0.000006233   -0.000611657
      2        1           0.000168519   -0.000182083   -0.000043107
      3        1           0.000115769    0.000042114    0.000206178
      4        1          -0.000244067    0.000046560    0.000016059
      5        6          -0.004797914    0.000048583   -0.002749771
      6        6          -0.002602657   -0.002178161    0.005867638
      7        1          -0.001358757   -0.000672699    0.000768449
      8        1          -0.001093914   -0.000166657    0.000541590
      9        1          -0.001641991   -0.000430660    0.001695552
     10        8           0.000971815    0.000928926    0.001427490
     11        8           0.010356212    0.002461270   -0.006764313
     12        1           0.000560033    0.000096574   -0.000354108
 -------------------------------------------------------------------
 Cartesian Forces:  Max     0.010356212 RMS     0.002639432
 IRC-IRC-IRC-IRC-IRC-IRC-IRC-IRC-IRC-IRC-IRC-IRC-IRC-IRC-IRC-IRC-IRC-IRC
 Pt  3 Step number   1 out of a maximum of  20
 Modified Bulirsch-Stoer Extrapolation Cycles:
    EPS =    0.000010000000000
      PEZero:  N= 2 I= 1 D=  5.46D-04 Err=  1.50D-04
      PEZero:  N= 3 I= 2 D=  5.46D-04 Err=  9.97D-05
      PEZero:  N= 3 I= 1 D=  1.09D-03 Err=  7.26D-07
 Maximum DWI energy   std dev =  0.000018515 at pt    35
 Maximum DWI gradient std dev =  0.120874272 at pt    29
 CORRECTOR INTEGRATION CONVERGENCE:
   Recorrection delta-x convergence threshold:    0.010000
   Delta-x Convergence NOT Met
 IRC-IRC-IRC-IRC-IRC-IRC-IRC-IRC-IRC-IRC-IRC-IRC-IRC-IRC-IRC-IRC-IRC-IRC
                          Input orientation:                          
 ---------------------------------------------------------------------
 Center     Atomic      Atomic             Coordinates (Angstroms)
 Number     Number       Type             X           Y           Z
 ---------------------------------------------------------------------
      1          6           0       -1.386001    1.202137   -0.144014
      2          1           0       -0.733108    2.021726    0.170339
      3          1           0       -2.326136    1.282764    0.418145
      4          1           0       -1.625454    1.307225   -1.207167
      5          6           0       -0.774925   -0.166428    0.122250
      6          6           0        0.361742   -0.227660    1.031414
      7          1           0        0.355085    0.552519    1.800085
      8          1           0        0.520979   -1.223409    1.457104
      9          1           0        1.326992    0.014631    0.361080
     10          8           0       -1.217715   -1.153331   -0.495535
     11          8           0        2.556338    0.324019   -0.387210
     12          1           0        2.658191   -0.415293   -1.010775
 ---------------------------------------------------------------------
                    Distance matrix (angstroms):
                    1          2          3          4          5
     1  C    0.000000
     2  H    1.093990   0.000000
     3  H    1.098352   1.773474   0.000000
     4  H    1.094840   1.790061   1.770083   0.000000
     5  C    1.522262   2.189082   2.143355   2.159260   0.000000
     6  C    2.545694   2.645729   3.143592   3.363937   1.456826
     7  H    2.689406   2.449245   3.103540   3.679087   2.146843
     8  H    3.476122   3.709366   3.932735   4.255541   2.139722
     9  H    3.004267   2.882503   3.867397   3.584290   2.123176
    10  O    2.387491   3.280125   2.828068   2.593648   1.245672
    11  O    4.046267   3.743464   5.040470   4.373375   3.405495
    12  H    4.441041   4.339931   5.456072   4.621175   3.623805
                    6          7          8          9         10
     6  C    0.000000
     7  H    1.095252   0.000000
     8  H    1.094570   1.816336   0.000000
     9  H    1.199900   1.817872   1.839475   0.000000
    10  O    2.383931   3.263969   2.615486   2.928047   0.000000
    11  O    2.670785   3.111588   3.152573   1.472056   4.054352
    12  H    3.078867   3.760570   3.363206   1.959314   3.979047
                   11         12
    11  O    0.000000
    12  H    0.972518   0.000000
 Symmetry turned off by external request.
 Stoichiometry    C3H7O2(1-)
 Framework group  C1[X(C3H7O2)]
 Deg. of freedom    30
 Full point group                 C1      NOp   1
 Rotational constants (GHZ):           6.4802305           2.4502229           2.2087569
 Standard basis: 6-31+G(d) (6D, 7F)
   109 basis functions,   188 primitive gaussians,   109 cartesian basis functions
    21 alpha electrons       21 beta electrons
       nuclear repulsion energy       168.0666895272 Hartrees.
 NAtoms=   12 NActive=   12 NUniq=   12 SFac= 1.00D+00 NAtFMM=   60 NAOKFM=F Big=F
 Integral buffers will be    131072 words long.
 Raffenetti 2 integral format.
 Two-electron integral symmetry is turned off.
 Nuclear repulsion after empirical dispersion term =      168.0545149751 Hartrees.
 Force inversion solution in PCM.
 ------------------------------------------------------------------------------
 Polarizable Continuum Model (PCM)
 =================================
 Model                : PCM.
 Atomic radii         : UFF (Universal Force Field).
 Polarization charges : Total charges.
 Charge compensation  : None.
 Solution method      : Matrix inversion.
 Cavity type          : Scaled VdW (van der Waals Surface) (Alpha=1.100).
 Cavity algorithm     : GePol (No added spheres)
                        Default sphere list used, NSphG=   12.
                        Lebedev-Laikov grids with approx.  5.0 points / Ang**2.
                        Smoothing algorithm: York/Karplus (Gamma=1.0000).
                        Polarization charges: spherical gaussians, with
                                              point-specific exponents (IZeta= 3).
                        Self-potential: point-specific (ISelfS= 7).
                        Self-field    : sphere-specific E.n sum rule (ISelfD= 2).
 1st derivatives      : Analytical E(r).r(x)/FMM algorithm (CHGder, D1EAlg=3).
                        Cavity 1st derivative terms included.
 Solvent              : Water, Eps=  78.355300 Eps(inf)=   1.777849
 ------------------------------------------------------------------------------
 Spheres list:
 ISph  on   Nord     Re0    Alpha      Xe            Ye            Ze
    1   C      1    1.9255  1.100     -1.386001      1.202137     -0.144014
    2   H      2    1.4430  1.100     -0.733108      2.021726      0.170339
    3   H      3    1.4430  1.100     -2.326136      1.282764      0.418145
    4   H      4    1.4430  1.100     -1.625454      1.307225     -1.207167
    5   C      5    1.9255  1.100     -0.774925     -0.166428      0.122250
    6   C      6    1.9255  1.100      0.361742     -0.227660      1.031414
    7   H      7    1.4430  1.100      0.355085      0.552519      1.800085
    8   H      8    1.4430  1.100      0.520979     -1.223409      1.457104
    9   H      9    1.4430  1.100      1.326992      0.014631      0.361080
   10   O     10    1.7500  1.100     -1.217715     -1.153331     -0.495535
   11   O     11    1.7500  1.100      2.556338      0.324019     -0.387210
   12   H     12    1.4430  1.100      2.658191     -0.415293     -1.010775
 ------------------------------------------------------------------------------
 One-electron integrals computed using PRISM.
 PrsmSu:  requested number of processors reduced to:  30 ShMem   1 Linda.
 NBasis=   109 RedAO= T EigKep=  1.45D-04  NBF=   109
 NBsUse=   109 1.00D-06 EigRej= -1.00D+00 NBFU=   109
 Initial guess from the checkpoint file:  "IRCOH.chk"
 B after Tr=     0.000053    0.000005   -0.000011
         Rot=    1.000000   -0.000009   -0.000001   -0.000001 Ang=  -0.00 deg.
 ExpMin= 4.38D-02 ExpMax= 5.48D+03 ExpMxC= 8.25D+02 IAcc=3 IRadAn=         5 AccDes= 0.00D+00
 Harris functional with IExCor=  402 and IRadAn=       5 diagonalized for initial guess.
 HarFok:  IExCor=  402 AccDes= 0.00D+00 IRadAn=         5 IDoV= 1 UseB2=F ITyADJ=14
 ICtDFT=  3500011 ScaDFX=  1.000000  1.000000  1.000000  1.000000
 FoFCou: FMM=F IPFlag=           0 FMFlag=      100000 FMFlg1=           0
         NFxFlg=           0 DoJE=T BraDBF=F KetDBF=T FulRan=T
         wScrn=  0.000000 ICntrl=       500 IOpCl=  0 I1Cent=   200000004 NGrid=           0
         NMat0=    1 NMatS0=      1 NMatT0=    0 NMatD0=    1 NMtDS0=    0 NMtDT0=    0
 Symmetry not used in FoFCou.
 Keep R1 ints in memory in canonical form, NReq=47890873.
 Requested convergence on RMS density matrix=1.00D-08 within 128 cycles.
 Requested convergence on MAX density matrix=1.00D-06.
 Requested convergence on             energy=1.00D-06.
 No special actions if energy rises.
 Inv3:  Mode=1 IEnd=     3960603.
 Iteration    1 A*A^-1 deviation from unit magnitude is 4.11D-15 for   1134.
 Iteration    1 A*A^-1 deviation from orthogonality  is 2.00D-15 for    982    840.
 Iteration    1 A^-1*A deviation from unit magnitude is 4.22D-15 for   1146.
 Iteration    1 A^-1*A deviation from orthogonality  is 3.33D-15 for   1149    243.
 Error on total polarization charges =  0.02349
 SCF Done:  E(RB3LYP) =  -269.108343587     A.U. after   10 cycles
            NFock= 10  Conv=0.45D-08     -V/T= 2.0097
 DoSCS=F DFT=T ScalE2(SS,OS)=  1.000000  1.000000
 Range of M.O.s used for correlation:     1   109
 NBasis=   109 NAE=    21 NBE=    21 NFC=     0 NFV=     0
 NROrb=    109 NOA=    21 NOB=    21 NVA=    88 NVB=    88

 **** Warning!!: The largest alpha MO coefficient is  0.29908579D+02

 Symmetrizing basis deriv contribution to polar:
 IMax=3 JMax=2 DiffMx= 0.00D+00
 PrsmSu:  requested number of processors reduced to:  30 ShMem   1 Linda.
 D1PCM: PCM CHGder 1st derivatives, ID1Alg=3 FixD1E=F DoIter=F DoCFld=F I1PDM=0.
 CoulSu:  requested number of processors reduced to:  29 ShMem   1 Linda.
 CoulSu:  requested number of processors reduced to:  30 ShMem   1 Linda.
 Calling FoFJK, ICntrl=      2127 FMM=F ISym2X=0 I1Cent= 0 IOpClX= 0 NMat=1 NMatS=1 NMatT=0.
 -------------------------------------------------------------------
 Center     Atomic                   Forces (Hartrees/Bohr)
 Number     Number              X              Y              Z
 -------------------------------------------------------------------
      1        6          -0.000477748    0.000060790   -0.000617656
      2        1           0.000160610   -0.000169506   -0.000054177
      3        1           0.000108958    0.000056338    0.000190903
      4        1          -0.000240075    0.000059208    0.000012871
      5        6          -0.004123026    0.000137399   -0.002166717
      6        6          -0.001761604   -0.001774066    0.004705871
      7        1          -0.001268772   -0.000561666    0.000799296
      8        1          -0.001030034   -0.000229973    0.000526218
      9        1          -0.002575903   -0.000679665    0.002307954
     10        8           0.000738506    0.000638811    0.001106666
     11        8           0.009942737    0.002379121   -0.006472526
     12        1           0.000526351    0.000083211   -0.000338702
 -------------------------------------------------------------------
 Cartesian Forces:  Max     0.009942737 RMS     0.002450962
 IRC-IRC-IRC-IRC-IRC-IRC-IRC-IRC-IRC-IRC-IRC-IRC-IRC-IRC-IRC-IRC-IRC-IRC
 Error in corrector energy =          -0.0000050293
 Magnitude of corrector gradient =     0.0153861291
 Magnitude of analytic gradient =      0.0147057747
 Magnitude of difference =             0.0012110062
 Angle between gradients (degrees)=    3.8167
 Pt  3 Step number   2 out of a maximum of  20
 Modified Bulirsch-Stoer Extrapolation Cycles:
    EPS =    0.000010000000000
      PEZero:  N= 2 I= 1 D=  5.46D-04 Err=  1.41D-04
      PEZero:  N= 3 I= 2 D=  5.46D-04 Err=  9.37D-05
      PEZero:  N= 3 I= 1 D=  1.09D-03 Err=  1.95D-07
 Maximum DWI energy   std dev =  0.000021320 at pt    34
 Maximum DWI gradient std dev =  0.103826166 at pt    29
 CORRECTOR INTEGRATION CONVERGENCE:
   Recorrection delta-x convergence threshold:    0.010000
   Delta-x Convergence Met
 Point Number:   3          Path Number:   1
   CHANGE IN THE REACTION COORDINATE =    0.10409
   NET REACTION COORDINATE UP TO THIS POINT =    0.31335
  # OF POINTS ALONG THE PATH =   3
  # OF STEPS =   2

 Calculating another point on the path.
 IRC-IRC-IRC-IRC-IRC-IRC-IRC-IRC-IRC-IRC-IRC-IRC-IRC-IRC-IRC-IRC-IRC-IRC
                          Input orientation:                          
 ---------------------------------------------------------------------
 Center     Atomic      Atomic             Coordinates (Angstroms)
 Number     Number       Type             X           Y           Z
 ---------------------------------------------------------------------
      1          6           0       -1.386446    1.202244   -0.144591
      2          1           0       -0.731410    2.020055    0.169550
      3          1           0       -2.324985    1.283568    0.420162
      4          1           0       -1.628070    1.307859   -1.207070
      5          6           0       -0.778282   -0.166303    0.120594
      6          6           0        0.359693   -0.229272    1.035752
      7          1           0        0.341989    0.546910    1.808758
      8          1           0        0.510146   -1.226012    1.462597
      9          1           0        1.304707    0.008524    0.382218
     10          8           0       -1.217293   -1.153001   -0.494918
     11          8           0        2.562980    0.325626   -0.391571
     12          1           0        2.663738   -0.414459   -1.014419
 ---------------------------------------------------------------------
                    Distance matrix (angstroms):
                    1          2          3          4          5
     1  C    0.000000
     2  H    1.093879   0.000000
     3  H    1.098370   1.773331   0.000000
     4  H    1.094714   1.790615   1.770358   0.000000
     5  C    1.520891   2.187409   2.141065   2.158237   0.000000
     6  C    2.547831   2.645805   3.142472   3.368118   1.461665
     7  H    2.689335   2.451397   3.095741   3.681765   2.147924
     8  H    3.475132   3.708151   3.927166   4.256711   2.141028
     9  H    2.990786   2.870063   3.847316   3.579845   2.106622
    10  O    2.387157   3.278092   2.828643   2.594558   1.243044
    11  O    4.053075   3.746859   5.046659   4.381177   3.415895
    12  H    4.446833   4.342312   5.461564   4.628510   3.632815
                    6          7          8          9         10
     6  C    0.000000
     7  H    1.095587   0.000000
     8  H    1.094680   1.814209   0.000000
     9  H    1.173331   1.803247   1.822807   0.000000
    10  O    2.383928   3.260059   2.611751   2.911871   0.000000
    11  O    2.683214   3.134200   3.171695   1.510812   4.060478
    12  H    3.089680   3.779561   3.381152   1.994111   3.984687
                   11         12
    11  O    0.000000
    12  H    0.972532   0.000000
 Symmetry turned off by external request.
 Stoichiometry    C3H7O2(1-)
 Framework group  C1[X(C3H7O2)]
 Deg. of freedom    30
 Full point group                 C1      NOp   1
 Rotational constants (GHZ):           6.4616144           2.4410695           2.2035057
 Standard basis: 6-31+G(d) (6D, 7F)
   109 basis functions,   188 primitive gaussians,   109 cartesian basis functions
    21 alpha electrons       21 beta electrons
       nuclear repulsion energy       167.9688632666 Hartrees.
 NAtoms=   12 NActive=   12 NUniq=   12 SFac= 1.00D+00 NAtFMM=   60 NAOKFM=F Big=F
 Integral buffers will be    131072 words long.
 Raffenetti 2 integral format.
 Two-electron integral symmetry is turned off.
 Nuclear repulsion after empirical dispersion term =      167.9566984202 Hartrees.
 Force inversion solution in PCM.
 ------------------------------------------------------------------------------
 Polarizable Continuum Model (PCM)
 =================================
 Model                : PCM.
 Atomic radii         : UFF (Universal Force Field).
 Polarization charges : Total charges.
 Charge compensation  : None.
 Solution method      : Matrix inversion.
 Cavity type          : Scaled VdW (van der Waals Surface) (Alpha=1.100).
 Cavity algorithm     : GePol (No added spheres)
                        Default sphere list used, NSphG=   12.
                        Lebedev-Laikov grids with approx.  5.0 points / Ang**2.
                        Smoothing algorithm: York/Karplus (Gamma=1.0000).
                        Polarization charges: spherical gaussians, with
                                              point-specific exponents (IZeta= 3).
                        Self-potential: point-specific (ISelfS= 7).
                        Self-field    : sphere-specific E.n sum rule (ISelfD= 2).
 1st derivatives      : Analytical E(r).r(x)/FMM algorithm (CHGder, D1EAlg=3).
                        Cavity 1st derivative terms included.
 Solvent              : Water, Eps=  78.355300 Eps(inf)=   1.777849
 ------------------------------------------------------------------------------
 Spheres list:
 ISph  on   Nord     Re0    Alpha      Xe            Ye            Ze
    1   C      1    1.9255  1.100     -1.386446      1.202244     -0.144591
    2   H      2    1.4430  1.100     -0.731410      2.020055      0.169550
    3   H      3    1.4430  1.100     -2.324985      1.283568      0.420162
    4   H      4    1.4430  1.100     -1.628070      1.307859     -1.207070
    5   C      5    1.9255  1.100     -0.778282     -0.166303      0.120594
    6   C      6    1.9255  1.100      0.359693     -0.229272      1.035752
    7   H      7    1.4430  1.100      0.341989      0.546910      1.808758
    8   H      8    1.4430  1.100      0.510146     -1.226012      1.462597
    9   H      9    1.4430  1.100      1.304707      0.008524      0.382218
   10   O     10    1.7500  1.100     -1.217293     -1.153001     -0.494918
   11   O     11    1.7500  1.100      2.562980      0.325626     -0.391571
   12   H     12    1.4430  1.100      2.663738     -0.414459     -1.014419
 ------------------------------------------------------------------------------
 One-electron integrals computed using PRISM.
 PrsmSu:  requested number of processors reduced to:  30 ShMem   1 Linda.
 NBasis=   109 RedAO= T EigKep=  1.48D-04  NBF=   109
 NBsUse=   109 1.00D-06 EigRej= -1.00D+00 NBFU=   109
 Initial guess from the checkpoint file:  "IRCOH.chk"
 B after Tr=    -0.000870   -0.000291    0.000706
         Rot=    1.000000   -0.000090    0.000139    0.000032 Ang=  -0.02 deg.
 ExpMin= 4.38D-02 ExpMax= 5.48D+03 ExpMxC= 8.25D+02 IAcc=3 IRadAn=         5 AccDes= 0.00D+00
 Harris functional with IExCor=  402 and IRadAn=       5 diagonalized for initial guess.
 HarFok:  IExCor=  402 AccDes= 0.00D+00 IRadAn=         5 IDoV= 1 UseB2=F ITyADJ=14
 ICtDFT=  3500011 ScaDFX=  1.000000  1.000000  1.000000  1.000000
 FoFCou: FMM=F IPFlag=           0 FMFlag=      100000 FMFlg1=           0
         NFxFlg=           0 DoJE=T BraDBF=F KetDBF=T FulRan=T
         wScrn=  0.000000 ICntrl=       500 IOpCl=  0 I1Cent=   200000004 NGrid=           0
         NMat0=    1 NMatS0=      1 NMatT0=    0 NMatD0=    1 NMtDS0=    0 NMtDT0=    0
 Symmetry not used in FoFCou.
 Keep R1 ints in memory in canonical form, NReq=47890873.
 Requested convergence on RMS density matrix=1.00D-08 within 128 cycles.
 Requested convergence on MAX density matrix=1.00D-06.
 Requested convergence on             energy=1.00D-06.
 No special actions if energy rises.
 Inv3:  Mode=1 IEnd=     3974403.
 Iteration    1 A*A^-1 deviation from unit magnitude is 3.77D-15 for   1140.
 Iteration    1 A*A^-1 deviation from orthogonality  is 1.96D-15 for   1149    175.
 Iteration    1 A^-1*A deviation from unit magnitude is 3.77D-15 for   1140.
 Iteration    1 A^-1*A deviation from orthogonality  is 2.94D-15 for   1150    312.
 Error on total polarization charges =  0.02370
 SCF Done:  E(RB3LYP) =  -269.108855886     A.U. after   11 cycles
            NFock= 11  Conv=0.27D-08     -V/T= 2.0096
 DoSCS=F DFT=T ScalE2(SS,OS)=  1.000000  1.000000
 Range of M.O.s used for correlation:     1   109
 NBasis=   109 NAE=    21 NBE=    21 NFC=     0 NFV=     0
 NROrb=    109 NOA=    21 NOB=    21 NVA=    88 NVB=    88

 **** Warning!!: The largest alpha MO coefficient is  0.29863413D+02

 Symmetrizing basis deriv contribution to polar:
 IMax=3 JMax=2 DiffMx= 0.00D+00
 PrsmSu:  requested number of processors reduced to:  30 ShMem   1 Linda.
 D1PCM: PCM CHGder 1st derivatives, ID1Alg=3 FixD1E=F DoIter=F DoCFld=F I1PDM=0.
 CoulSu:  requested number of processors reduced to:  29 ShMem   1 Linda.
 CoulSu:  requested number of processors reduced to:  30 ShMem   1 Linda.
 Calling FoFJK, ICntrl=      2127 FMM=F ISym2X=0 I1Cent= 0 IOpClX= 0 NMat=1 NMatS=1 NMatT=0.
 -------------------------------------------------------------------
 Center     Atomic                   Forces (Hartrees/Bohr)
 Number     Number              X              Y              Z
 -------------------------------------------------------------------
      1        6          -0.000682086    0.000196159   -0.000742954
      2        1           0.000172859   -0.000158522   -0.000107292
      3        1           0.000111976    0.000116623    0.000206506
      4        1          -0.000287900    0.000077786    0.000005907
      5        6          -0.003696191    0.000336495   -0.001504325
      6        6          -0.005240764   -0.002535295    0.007038630
      7        1          -0.001282793   -0.000641495    0.000765518
      8        1          -0.001103018   -0.000235108    0.000489516
      9        1           0.000209513    0.000010104    0.000741619
     10        8           0.000334358    0.000138819    0.000634574
     11        8           0.010861226    0.002580756   -0.007149586
     12        1           0.000602821    0.000113678   -0.000378113
 -------------------------------------------------------------------
 Cartesian Forces:  Max     0.010861226 RMS     0.002800290
 IRC-IRC-IRC-IRC-IRC-IRC-IRC-IRC-IRC-IRC-IRC-IRC-IRC-IRC-IRC-IRC-IRC-IRC
 Pt  4 Step number   1 out of a maximum of  20
 Modified Bulirsch-Stoer Extrapolation Cycles:
    EPS =    0.000010000000000
      PEZero:  N= 2 I= 1 D=  5.45D-04 Err=  1.14D-04
      PEZero:  N= 3 I= 2 D=  5.45D-04 Err=  7.54D-05
      PEZero:  N= 3 I= 1 D=  1.09D-03 Err=  6.17D-07
 Maximum DWI energy   std dev =  0.000006246 at pt    32
 Maximum DWI gradient std dev =  0.122575909 at pt    28
 CORRECTOR INTEGRATION CONVERGENCE:
   Recorrection delta-x convergence threshold:    0.010000
   Delta-x Convergence NOT Met
 IRC-IRC-IRC-IRC-IRC-IRC-IRC-IRC-IRC-IRC-IRC-IRC-IRC-IRC-IRC-IRC-IRC-IRC
                          Input orientation:                          
 ---------------------------------------------------------------------
 Center     Atomic      Atomic             Coordinates (Angstroms)
 Number     Number       Type             X           Y           Z
 ---------------------------------------------------------------------
      1          6           0       -1.386511    1.202256   -0.144614
      2          1           0       -0.731364    2.019997    0.169500
      3          1           0       -2.324992    1.283665    0.420225
      4          1           0       -1.628221    1.307949   -1.207079
[...]
 NAtoms=   12 NActive=   12 NUniq=   12 SFac= 1.00D+00 NAtFMM=   60 NAOKFM=F Big=F
 Integral buffers will be    131072 words long.
 Raffenetti 2 integral format.
 Two-electron integral symmetry is turned off.
 Nuclear repulsion after empirical dispersion term =      166.3577347148 Hartrees.
 Force inversion solution in PCM.
 ------------------------------------------------------------------------------
 Polarizable Continuum Model (PCM)
 =================================
 Model                : PCM.
 Atomic radii         : UFF (Universal Force Field).
 Polarization charges : Total charges.
 Charge compensation  : None.
 Solution method      : Matrix inversion.
 Cavity type          : Scaled VdW (van der Waals Surface) (Alpha=1.100).
 Cavity algorithm     : GePol (No added spheres)
                        Default sphere list used, NSphG=   12.
                        Lebedev-Laikov grids with approx.  5.0 points / Ang**2.
                        Smoothing algorithm: York/Karplus (Gamma=1.0000).
                        Polarization charges: spherical gaussians, with
                                              point-specific exponents (IZeta= 3).
                        Self-potential: point-specific (ISelfS= 7).
                        Self-field    : sphere-specific E.n sum rule (ISelfD= 2).
 1st derivatives      : Analytical E(r).r(x)/FMM algorithm (CHGder, D1EAlg=3).
                        Cavity 1st derivative terms included.
 Solvent              : Water, Eps=  78.355300 Eps(inf)=   1.777849
 ------------------------------------------------------------------------------
 Spheres list:
 ISph  on   Nord     Re0    Alpha      Xe            Ye            Ze
    1   C      1    1.9255  1.100     -1.379529      1.201019     -0.140110
    2   H      2    1.4430  1.100     -0.817844      2.027083      0.311449
    3   H      3    1.4430  1.100     -2.410266      1.238249      0.240311
    4   H      4    1.4430  1.100     -1.430530      1.357761     -1.225336
    5   C      5    1.9255  1.100     -0.770358     -0.171405      0.162445
    6   C      6    1.9255  1.100      0.228374     -0.243452      1.125791
    7   H      7    1.4430  1.100      0.464094      0.619507      1.746518
    8   H      8    1.4430  1.100      0.596181     -1.213926      1.459578
    9   H      9    1.4430  1.100      1.750863      0.136631      0.032175
   10   O     10    1.7500  1.100     -1.229085     -1.162308     -0.519993
   11   O     11    1.7500  1.100      2.616349      0.334824     -0.435870
   12   H     12    1.4430  1.100      2.723264     -0.387438     -1.075275
 ------------------------------------------------------------------------------
 One-electron integrals computed using PRISM.
 PrsmSu:  requested number of processors reduced to:  30 ShMem   1 Linda.
 NBasis=   109 RedAO= T EigKep=  1.05D-04  NBF=   109
 NBsUse=   109 1.00D-06 EigRej= -1.00D+00 NBFU=   109
 Initial guess from the checkpoint file:  "IRCOH.chk"
 B after Tr=    -0.000628   -0.000198    0.000236
         Rot=    1.000000   -0.000215    0.000220   -0.000007 Ang=  -0.04 deg.
 ExpMin= 4.38D-02 ExpMax= 5.48D+03 ExpMxC= 8.25D+02 IAcc=3 IRadAn=         5 AccDes= 0.00D+00
 Harris functional with IExCor=  402 and IRadAn=       5 diagonalized for initial guess.
 HarFok:  IExCor=  402 AccDes= 0.00D+00 IRadAn=         5 IDoV= 1 UseB2=F ITyADJ=14
 ICtDFT=  3500011 ScaDFX=  1.000000  1.000000  1.000000  1.000000
 FoFCou: FMM=F IPFlag=           0 FMFlag=      100000 FMFlg1=           0
         NFxFlg=           0 DoJE=T BraDBF=F KetDBF=T FulRan=T
         wScrn=  0.000000 ICntrl=       500 IOpCl=  0 I1Cent=   200000004 NGrid=           0
         NMat0=    1 NMatS0=      1 NMatT0=    0 NMatD0=    1 NMtDS0=    0 NMtDT0=    0
 Symmetry not used in FoFCou.
 Keep R1 ints in memory in canonical form, NReq=47890873.
 Requested convergence on RMS density matrix=1.00D-08 within 128 cycles.
 Requested convergence on MAX density matrix=1.00D-06.
 Requested convergence on             energy=1.00D-06.
 No special actions if energy rises.
 Inv3:  Mode=1 IEnd=     4043763.
 Iteration    1 A*A^-1 deviation from unit magnitude is 8.10D-15 for   1137.
 Iteration    1 A*A^-1 deviation from orthogonality  is 3.05D-15 for   1137    352.
 Iteration    1 A^-1*A deviation from unit magnitude is 8.10D-15 for   1137.
 Iteration    1 A^-1*A deviation from orthogonality  is 5.40D-14 for   1054    999.
 Error on total polarization charges =  0.02325
 SCF Done:  E(RB3LYP) =  -269.118546227     A.U. after   10 cycles
            NFock= 10  Conv=0.87D-08     -V/T= 2.0099
 DoSCS=F DFT=T ScalE2(SS,OS)=  1.000000  1.000000
 Range of M.O.s used for correlation:     1   109
 NBasis=   109 NAE=    21 NBE=    21 NFC=     0 NFV=     0
 NROrb=    109 NOA=    21 NOB=    21 NVA=    88 NVB=    88

 **** Warning!!: The largest alpha MO coefficient is  0.39357754D+02

 Symmetrizing basis deriv contribution to polar:
 IMax=3 JMax=2 DiffMx= 0.00D+00
 PrsmSu:  requested number of processors reduced to:  30 ShMem   1 Linda.
 D1PCM: PCM CHGder 1st derivatives, ID1Alg=3 FixD1E=F DoIter=F DoCFld=F I1PDM=0.
 CoulSu:  requested number of processors reduced to:  29 ShMem   1 Linda.
 CoulSu:  requested number of processors reduced to:  30 ShMem   1 Linda.
 Calling FoFJK, ICntrl=      2127 FMM=F ISym2X=0 I1Cent= 0 IOpClX= 0 NMat=1 NMatS=1 NMatT=0.
 -------------------------------------------------------------------
 Center     Atomic                   Forces (Hartrees/Bohr)
 Number     Number              X              Y              Z
 -------------------------------------------------------------------
      1        6          -0.000086133    0.000197714   -0.000129674
      2        1          -0.000360773   -0.000225668    0.000127152
      3        1           0.000238555   -0.000090999   -0.000496034
      4        1           0.000369087    0.000101909    0.000349683
      5        6          -0.000339666   -0.000098912    0.000349082
      6        6          -0.000859870   -0.000019131    0.001287522
      7        1          -0.000135734   -0.000299545   -0.000125031
      8        1          -0.000070122    0.000006161    0.000020903
      9        1          -0.000325457   -0.000066483    0.000194713
     10        8           0.000048626    0.000133987   -0.000077896
     11        8           0.001536005    0.000296140   -0.001463481
     12        1          -0.000014520    0.000064826   -0.000036937
 -------------------------------------------------------------------
 Cartesian Forces:  Max     0.001536005 RMS     0.000482573
 IRC-IRC-IRC-IRC-IRC-IRC-IRC-IRC-IRC-IRC-IRC-IRC-IRC-IRC-IRC-IRC-IRC-IRC
 Reaction path inflection point has been passed.
   Previous lowest Hessian eigenvalue=   -0.0002432080
   Current lowest Hessian eigenvalue =    0.0000081797
 Pt 40 Step number   1 out of a maximum of  20
 Modified Bulirsch-Stoer Extrapolation Cycles:
    EPS =    0.000010000000000
      PEZero:  N= 2 I= 1 D=  5.46D-04 Err=  4.69D-05
      PEZero:  N= 3 I= 2 D=  5.46D-04 Err=  3.14D-05
      PEZero:  N= 3 I= 1 D=  1.09D-03 Err=  1.63D-07
 Maximum DWI energy   std dev =  0.000002190 at pt    25
 Maximum DWI gradient std dev =  0.259059221 at pt    38
 CORRECTOR INTEGRATION CONVERGENCE:
   Recorrection delta-x convergence threshold:    0.010000
   Delta-x Convergence Met
 Point Number:  20          Path Number:   2
   CHANGE IN THE REACTION COORDINATE =    0.10471
   NET REACTION COORDINATE UP TO THIS POINT =    2.08945
  # OF POINTS ALONG THE PATH =  40
  # OF STEPS =   1

 Maximum number of steps reached.
 Calculation of REVERSE path complete.
 Reaction path calculation complete.
 
 Energies reported relative to the TS energy of        -269.106785
 --------------------------------------------------------------------------
    Summary of reaction path following
 --------------------------------------------------------------------------
                        Energy    RxCoord
   1                   -0.01176  -2.08945
   2                   -0.01166  -1.98474
   3                   -0.01155  -1.88046
   4                   -0.01142  -1.77642
   5                   -0.01128  -1.67230
   6                   -0.01111  -1.56777
   7                   -0.01091  -1.46302
   8                   -0.01069  -1.35844
   9                   -0.01044  -1.25378
  10                   -0.01015  -1.14921
  11                   -0.00981  -1.04454
  12                   -0.00940  -0.93984
  13                   -0.00892  -0.83512
  14                   -0.00833  -0.73041
  15                   -0.00762  -0.62587
  16                   -0.00670  -0.52331
  17                   -0.00523  -0.41929
  18                   -0.00334  -0.31454
  19                   -0.00157  -0.20971
  20                   -0.00038  -0.10486
  21                    0.00000   0.00000
  22                   -0.00029   0.10478
  23                   -0.00093   0.20925
  24                   -0.00156   0.31335
  25                   -0.00208   0.41706
  26                   -0.00258   0.52184
  27                   -0.00305   0.62669
  28                   -0.00350   0.73155
  29                   -0.00392   0.83637
  30                   -0.00432   0.94116
  31                   -0.00469   1.04572
  32                   -0.00502   1.15032
  33                   -0.00534   1.25499
  34                   -0.00563   1.35979
  35                   -0.00589   1.46445
  36                   -0.00614   1.56902
  37                   -0.00635   1.67368
  38                   -0.00655   1.77840
  39                   -0.00673   1.88322
  40                   -0.00690   1.98800
  41                   -0.00704   2.09273
 --------------------------------------------------------------------------
 
 Total number of points:                   40
 Total number of gradient calculations:    57
 Total number of Hessian calculations:      1
 IRC-IRC-IRC-IRC-IRC-IRC-IRC-IRC-IRC-IRC-IRC-IRC-IRC-IRC-IRC-IRC-IRC-IRC
                          Input orientation:                          
 ---------------------------------------------------------------------
 Center     Atomic      Atomic             Coordinates (Angstroms)
 Number     Number       Type             X           Y           Z
 ---------------------------------------------------------------------
      1          6           0       -1.379529    1.201019   -0.140110
      2          1           0       -0.817844    2.027083    0.311449
      3          1           0       -2.410266    1.238249    0.240311
      4          1           0       -1.430530    1.357761   -1.225336
      5          6           0       -0.770358   -0.171405    0.162445
      6          6           0        0.228374   -0.243452    1.125791
      7          1           0        0.464094    0.619507    1.746518
      8          1           0        0.596181   -1.213926    1.459578
      9          1           0        1.750863    0.136631    0.032175
     10          8           0       -1.229085   -1.162308   -0.519993
     11          8           0        2.616349    0.334824   -0.435870
     12          1           0        2.723264   -0.387438   -1.075275
 ---------------------------------------------------------------------
                    Distance matrix (angstroms):
                    1          2          3          4          5
     1  C    0.000000
     2  H    1.096256   0.000000
     3  H    1.099329   1.778518   0.000000
     4  H    1.097673   1.784680   1.767000   0.000000
     5  C    1.531723   2.204043   2.163905   2.167974   0.000000
     6  C    2.504865   2.629268   3.153083   3.292968   1.389493
     7  H    2.701198   2.384127   3.303551   3.600908   2.158403
     8  H    3.506336   3.717769   4.066755   4.234370   2.153331
     9  H    3.310885   3.201572   4.309510   3.632321   2.543308
    10  O    2.398387   3.321540   2.781353   2.624659   1.287649
    11  O    4.099367   3.900757   5.151723   4.248162   3.476209
    12  H    4.497848   4.504705   5.543172   4.508019   3.712683
                    6          7          8          9         10
     6  C    0.000000
     7  H    1.088836   0.000000
     8  H    1.090191   1.860446   0.000000
     9  H    1.912703   2.197252   2.279205   0.000000
    10  O    2.382664   3.343471   2.693133   3.297306   0.000000
    11  O    2.911290   3.078321   3.173708   1.003699   4.127450
    12  H    3.330151   3.752373   3.410725   1.564179   4.065689
                   11         12
    11  O    0.000000
    12  H    0.970532   0.000000
 Symmetry turned off by external request.
 Stoichiometry    C3H7O2(1-)
 Framework group  C1[X(C3H7O2)]
 Deg. of freedom    30
 Full point group                 C1      NOp   1
 Rotational constants (GHZ):           6.1879746           2.3413772           2.1459668

 **********************************************************************

            Population analysis using the SCF Density.

 **********************************************************************

 Alpha  occ. eigenvalues --  -19.13828 -19.07500 -10.21955 -10.16450 -10.12799
 Alpha  occ. eigenvalues --   -0.98628  -0.95291  -0.72417  -0.65755  -0.50924
 Alpha  occ. eigenvalues --   -0.48693  -0.41789  -0.41357  -0.40630  -0.37717
 Alpha  occ. eigenvalues --   -0.35572  -0.33590  -0.30836  -0.29812  -0.21027
 Alpha  occ. eigenvalues --   -0.17652
 Alpha virt. eigenvalues --    0.01092   0.03235   0.03734   0.04979   0.06559
 Alpha virt. eigenvalues --    0.07518   0.07853   0.08085   0.09305   0.10467
 Alpha virt. eigenvalues --    0.11509   0.12295   0.13782   0.16723   0.18111
 Alpha virt. eigenvalues --    0.19357   0.21566   0.22456   0.24558   0.25768
 Alpha virt. eigenvalues --    0.26299   0.27101   0.28776   0.29720   0.30094
 Alpha virt. eigenvalues --    0.33217   0.35399   0.36060   0.37134   0.43203
 Alpha virt. eigenvalues --    0.48807   0.66345   0.67808   0.68055   0.74772
 Alpha virt. eigenvalues --    0.75675   0.80365   0.81720   0.87174   0.92830
 Alpha virt. eigenvalues --    0.95539   0.98575   1.03133   1.05337   1.07987
 Alpha virt. eigenvalues --    1.12308   1.13511   1.15950   1.17789   1.18066
 Alpha virt. eigenvalues --    1.20443   1.26028   1.29338   1.33457   1.39721
 Alpha virt. eigenvalues --    1.41395   1.42012   1.49780   1.62798   1.73939
 Alpha virt. eigenvalues --    1.74529   1.75204   1.78453   1.79799   1.82389
 Alpha virt. eigenvalues --    1.86253   1.88294   1.98830   2.00266   2.02865
 Alpha virt. eigenvalues --    2.08154   2.22947   2.26017   2.29030   2.37721
 Alpha virt. eigenvalues --    2.41634   2.46026   2.55430   2.63255   2.66661
 Alpha virt. eigenvalues --    2.81550   3.01961   3.13695   3.96272   4.23602
 Alpha virt. eigenvalues --    4.28889   4.39253   4.62760
          Condensed to atoms (all electrons):
               1          2          3          4          5          6
     1  C    6.411906   0.351043   0.373201   0.389971   0.236345  -0.843697
     2  H    0.351043   0.524103  -0.027766  -0.029104  -0.082882   0.063062
     3  H    0.373201  -0.027766   0.518895  -0.032010  -0.029181  -0.006235
     4  H    0.389971  -0.029104  -0.032010   0.520255  -0.054808   0.004309
     5  C    0.236345  -0.082882  -0.029181  -0.054808   5.404802  -0.449319
     6  C   -0.843697   0.063062  -0.006235   0.004309  -0.449319   7.630705
     7  H    0.025007  -0.001142   0.000103   0.000387  -0.003800   0.307857
     8  H    0.021621   0.000201  -0.000183  -0.000134  -0.068905   0.384857
     9  H   -0.007808  -0.000004   0.000122  -0.000476   0.018206   0.133589
    10  O   -0.225252   0.009003  -0.000309   0.000415   0.498371  -0.213354
    11  O   -0.032297   0.000460  -0.000223   0.000644   0.009048  -0.085593
    12  H    0.002226  -0.000000   0.000001  -0.000009   0.005648  -0.001657
               7          8          9         10         11         12
     1  C    0.025007   0.021621  -0.007808  -0.225252  -0.032297   0.002226
     2  H   -0.001142   0.000201  -0.000004   0.009003   0.000460  -0.000000
     3  H    0.000103  -0.000183   0.000122  -0.000309  -0.000223   0.000001
     4  H    0.000387  -0.000134  -0.000476   0.000415   0.000644  -0.000009
     5  C   -0.003800  -0.068905   0.018206   0.498371   0.009048   0.005648
     6  C    0.307857   0.384857   0.133589  -0.213354  -0.085593  -0.001657
     7  H    0.528614  -0.035294  -0.003054   0.006137  -0.001103   0.000173
     8  H   -0.035294   0.531999  -0.002792  -0.000529  -0.001323  -0.000133
     9  H   -0.003054  -0.002792   0.295789  -0.007053   0.090756  -0.007579
    10  O    0.006137  -0.000529  -0.007053   8.724330   0.004396  -0.000589
    11  O   -0.001103  -0.001323   0.090756   0.004396   8.808191   0.208324
    12  H    0.000173  -0.000133  -0.007579  -0.000589   0.208324   0.320639
 Mulliken charges:
               1
     1  C   -0.702265
     2  H    0.193027
     3  H    0.203584
     4  H    0.200559
     5  C    0.516475
     6  C   -0.924525
     7  H    0.176116
     8  H    0.170615
     9  H    0.490305
    10  O   -0.795568
    11  O   -1.001281
    12  H    0.472958
 Sum of Mulliken charges =  -1.00000
 Mulliken charges with hydrogens summed into heavy atoms:
               1
     1  C   -0.105095
     5  C    0.516475
     6  C   -0.577794
    10  O   -0.795568
    11  O   -0.038019
 APT charges:
               1
     1  C   -1.267559
     2  H    0.363512
     3  H    0.522602
     4  H    0.402157
     5  C    0.168234
     6  C   -1.204666
     7  H    0.402179
     8  H    0.409903
     9  H    0.333309
    10  O   -0.747908
    11  O   -1.039311
    12  H    0.657548
 Sum of APT charges =  -1.00000
 APT charges with hydrogens summed into heavy atoms:
               1
     1  C    0.020712
     5  C    0.168234
     6  C   -0.392584
    10  O   -0.747908
    11  O   -0.048454
 Electronic spatial extent (au):  <R**2>=            639.5643
 Charge=             -1.0000 electrons
 Dipole moment (field-independent basis, Debye):
    X=              0.4994    Y=              2.7133    Z=              0.2292  Tot=              2.7684
 Quadrupole moment (field-independent basis, Debye-Ang):
   XX=            -51.7251   YY=            -41.7771   ZZ=            -38.1948
   XY=            -11.2754   XZ=             -3.5568   YZ=              0.0356
 Traceless Quadrupole moment (field-independent basis, Debye-Ang):
   XX=             -7.8261   YY=              2.1219   ZZ=              5.7042
   XY=            -11.2754   XZ=             -3.5568   YZ=              0.0356
 Octapole moment (field-independent basis, Debye-Ang**2):
  XXX=            -20.2385  YYY=              1.7621  ZZZ=            -14.4748  XYY=              9.1248
  XXY=             -9.8315  XXZ=             -3.3778  XZZ=              9.4076  YZZ=              0.1970
  YYZ=              1.8618  XYZ=              7.8570
 Hexadecapole moment (field-independent basis, Debye-Ang**3):
 XXXX=           -638.7520 YYYY=           -214.3337 ZZZZ=           -162.0632 XXXY=            -56.8191
 XXXZ=            -24.5229 YYYX=            -11.6816 YYYZ=              0.9998 ZZZX=             -1.3407
 ZZZY=              5.4457 XXYY=           -137.4135 XXZZ=           -106.5844 YYZZ=            -59.4470
 XXYZ=             10.3988 YYXZ=             -1.7688 ZZXY=             -8.3017
 N-N= 1.663577347148D+02 E-N=-9.704940824164D+02  KE= 2.664859798534D+02
  Exact polarizability:       0.000       0.000       0.000       0.000       0.000       0.000
 Approx polarizability:      91.002       5.222      70.496      13.782       5.623      79.939

 This type of calculation cannot be archived.


 AN OPTIMIST IS A GUY
 THAT HAS NEVER HAD
 MUCH EXPERIENCE
   (CERTAIN MAXIMS OF ARCHY  -- DON MARQUIS)
 Job cpu time:       0 days  2 hours 22 minutes 56.6 seconds.
 Elapsed time:       0 days  0 hours  4 minutes 44.0 seconds.
 File lengths (MBytes):  RWF=     59 Int=      0 D2E=      0 Chk=      7 Scr=      1
 Normal termination of Gaussian 16 at Fri Jun 28 00:27:45 2024.
