 Entering Gaussian System, Link 0=g16
 Input=/home/duckter/Documents/KET_DFT_demo/OHTS1.gjf
 Output=/home/duckter/Documents/KET_DFT_demo/OHTS1.log
 Initial command:
 /home/duckter/g16/l1.exe "/home/duckter/g16/scratch/Gau-55716.inp" -scrdir="/home/duckter/g16/scratch/"
 Entering Link 1 = /home/duckter/g16/l1.exe PID=     55719.
  
 Copyright (c) 1988-2019, Gaussian, Inc.  All Rights Reserved.
  
 This is part of the Gaussian(R) 16 program.  It is based on
 the Gaussian(R) 09 system (copyright 2009, Gaussian, Inc.),
 the Gaussian(R) 03 system (copyright 2003, Gaussian, Inc.),
 the Gaussian(R) 98 system (copyright 1998, Gaussian, Inc.),
 the Gaussian(R) 94 system (copyright 1995, Gaussian, Inc.),
 the Gaussian 92(TM) system (copyright 1992, Gaussian, Inc.),
 the Gaussian 90(TM) system (copyright 1990, Gaussian, Inc.),
 the Gaussian 88(TM) system (copyright 1988, Gaussian, Inc.),
 the Gaussian 86(TM) system (copyright 1986, Carnegie Mellon
 University), and the Gaussian 82(TM) system (copyright 1983,
 Carnegie Mellon University). Gaussian is a federally registered
 trademark of Gaussian, Inc.
  
 This software contains proprietary and confidential information,
 including trade secrets, belonging to Gaussian, Inc.
  
 This software is provided under written license and may be
 used, copied, transmitted, or stored only in accord with that
 written license.
  
 The following legend is applicable only to US Government
 contracts under FAR:
  
                    RESTRICTED RIGHTS LEGEND
  
 Use, reproduction and disclosure by the US Government is
 subject to restrictions as set forth in subparagraphs (a)
 and (c) of the Commercial Computer Software - Restricted
 Rights clause in FAR 52.227-19.
  
 Gaussian, Inc.
 340 Quinnipiac St., Bldg. 40, Wallingford CT 06492
  
  
 ---------------------------------------------------------------
 Warning -- This program may not be used in any manner that
 competes with the business of Gaussian, Inc. or will provide
 assistance to any competitor of Gaussian, Inc.  The licensee
 of this program is prohibited from giving any competitor of
 Gaussian, Inc. access to this program.  By using this program,
 the user acknowledges that Gaussian, Inc. is engaged in the
 business of creating and licensing software in the field of
 computational chemistry and represents and warrants to the
 licensee that it is not a competitor of Gaussian, Inc. and that
 it will not use this program in any manner prohibited above.
 ---------------------------------------------------------------
  

 Cite this work as:
 Gaussian 16, Revision C.01,
 M. J. Frisch, G. W. Trucks, H. B. Schlegel, G. E. Scuseria, 
 M. A. Robb, J. R. Cheeseman, G. Scalmani, V. Barone, 
 G. A. Petersson, H. Nakatsuji, X. Li, M. Caricato, A. V. Marenich, 
 J. Bloino, B. G. Janesko, R. Gomperts, B. Mennucci, H. P. Hratchian, 
 J. V. Ortiz, A. F. Izmaylov, J. L. Sonnenberg, D. Williams-Young, 
 F. Ding, F. Lipparini, F. Egidi, J. Goings, B. Peng, A. Petrone, 
 T. Henderson, D. Ranasinghe, V. G. Zakrzewski, J. Gao, N. Rega, 
 G. Zheng, W. Liang, M. Hada, M. Ehara, K. Toyota, R. Fukuda, 
 J. Hasegawa, M. Ishida, T. Nakajima, Y. Honda, O. Kitao, H. Nakai, 
 T. Vreven, K. Throssell, J. A. Montgomery, Jr., J. E. Peralta, 
 F. Ogliaro, M. J. Bearpark, J. J. Heyd, E. N. Brothers, K. N. Kudin, 
 V. N. Staroverov, T. A. Keith, R. Kobayashi, J. Normand, 
 K. Raghavachari, A. P. Rendell, J. C. Burant, S. S. Iyengar, 
 J. Tomasi, M. Cossi, J. M. Millam, M. Klene, C. Adamo, R. Cammi, 
 J. W. Ochterski, R. L. Martin, K. Morokuma, O. Farkas, 
 J. B. Foresman, and D. J. Fox, Gaussian, Inc., Wallingford CT, 2019.
 
 ******************************************
 Gaussian 16:  ES64L-G16RevC.01  3-Jul-2019
                28-Jun-2024 
 ******************************************
 %nprocshared=32
 Will use up to   32 processors via shared memory.
 %chk=OHTS1.chk
 ----------------------------------------------------------------------
 # opt=(calcfc,ts,noeigen,maxcycles=6000) freq b3lyp/6-31+g(d) scrf emp
 iricaldispersion=gd3bj
 ----------------------------------------------------------------------
 1/5=1,6=6000,10=4,11=1,18=20,26=3,38=1/1,3;
 2/9=110,12=2,17=6,18=5,40=1/2;
 3/5=1,6=6,7=11,11=2,25=1,30=1,70=2201,71=2,74=-5,124=41,140=1/1,2,3;
 4//1;
 5/5=2,38=5/2;
 8/6=4,10=90,11=11/1;
 11/6=1,8=1,9=11,15=111,16=1/1,2,10;
 10/6=1,13=1/2;
 6/7=2,8=2,9=2,10=2,28=1/1;
 7/10=1,25=1/1,2,3,16;
 1/5=1,6=6000,10=4,11=1,18=20,26=3/3(2);
 2/9=110/2;
 99//99;
 2/9=110/2;
 3/5=1,6=6,7=11,11=2,25=1,30=1,70=2205,71=1,74=-5,124=41/1,2,3;
 4/5=5,16=3,69=1/1;
 5/5=2,38=5/2;
 7//1,2,3,16;
 1/5=1,6=6000,11=1,18=20,26=3/3(-5);
 2/9=110/2;
 6/7=2,8=2,9=2,10=2,19=2,28=1/1;
 99/9=1/99;
 -----------
 fzgsdfgsfdg
 -----------
 Symbolic Z-matrix:
 Charge = -1 Multiplicity = 1
 C                    -1.34517   1.2281   -0.00188 
 H                    -0.8337    1.81977   0.75911 
 H                    -2.42664   1.19416   0.19326 
 H                    -1.18141   1.64061  -1.00585 
 C                    -0.76494  -0.15354  -0.02693 
 C                     0.3445   -0.51413   0.95815 
 H                     0.36062   0.05974   1.89743 
 H                     0.67628  -1.56925   1.05582 
 H                     1.1372    0.08534   0.14458 
 O                    -1.23638  -1.1307   -0.5807 
 O                     2.0128    0.82538  -0.48376 
 H                     2.42195  -0.0397   -0.72231 
 
 Add virtual bond connecting atoms O11        and H9         Dist= 2.47D+00.

 GradGradGradGradGradGradGradGradGradGradGradGradGradGradGradGradGradGrad
 Berny optimization.
 Initialization pass.
                           ----------------------------
                           !    Initial Parameters    !
                           ! (Angstroms and Degrees)  !
 --------------------------                            --------------------------
 ! Name  Definition              Value          Derivative Info.                !
 --------------------------------------------------------------------------------
 ! R1    R(1,2)                  1.0912         calculate D2E/DX2 analytically  !
 ! R2    R(1,3)                  1.0995         calculate D2E/DX2 analytically  !
 ! R3    R(1,4)                  1.0977         calculate D2E/DX2 analytically  !
 ! R4    R(1,5)                  1.4987         calculate D2E/DX2 analytically  !
 ! R5    R(5,6)                  1.5268         calculate D2E/DX2 analytically  !
 ! R6    R(5,10)                 1.2181         calculate D2E/DX2 analytically  !
 ! R7    R(6,7)                  1.1008         calculate D2E/DX2 analytically  !
 ! R8    R(6,8)                  1.1104         calculate D2E/DX2 analytically  !
 ! R9    R(6,9)                  1.2844         calculate D2E/DX2 analytically  !
 ! R10   R(9,11)                 1.3073         calculate D2E/DX2 analytically  !
 ! R11   R(11,12)                0.9862         calculate D2E/DX2 analytically  !
 ! A1    A(2,1,3)              110.7321         calculate D2E/DX2 analytically  !
 ! A2    A(2,1,4)              111.3545         calculate D2E/DX2 analytically  !
 ! A3    A(2,1,5)              109.2713         calculate D2E/DX2 analytically  !
 ! A4    A(3,1,4)              108.7037         calculate D2E/DX2 analytically  !
 ! A5    A(3,1,5)              110.8133         calculate D2E/DX2 analytically  !
 ! A6    A(4,1,5)              105.8666         calculate D2E/DX2 analytically  !
 ! A7    A(1,5,6)              119.2248         calculate D2E/DX2 analytically  !
 ! A8    A(1,5,10)             126.6756         calculate D2E/DX2 analytically  !
 ! A9    A(6,5,10)             112.6488         calculate D2E/DX2 analytically  !
 ! A10   A(5,6,7)              115.9772         calculate D2E/DX2 analytically  !
 ! A11   A(5,6,8)              119.8866         calculate D2E/DX2 analytically  !
 ! A12   A(5,6,9)               85.9607         calculate D2E/DX2 analytically  !
 ! A13   A(7,6,8)              114.5786         calculate D2E/DX2 analytically  !
 ! A14   A(7,6,9)              106.7458         calculate D2E/DX2 analytically  !
 ! A15   A(8,6,9)              108.3502         calculate D2E/DX2 analytically  !
 ! A16   A(9,11,12)             84.1217         calculate D2E/DX2 analytically  !
 ! A17   L(6,9,11,1,-1)        180.876          calculate D2E/DX2 analytically  !
 ! A18   L(6,9,11,1,-2)        168.4689         calculate D2E/DX2 analytically  !
 ! D1    D(2,1,5,6)              1.3402         calculate D2E/DX2 analytically  !
 ! D2    D(2,1,5,10)           166.5334         calculate D2E/DX2 analytically  !
 ! D3    D(3,1,5,6)           -120.9426         calculate D2E/DX2 analytically  !
 ! D4    D(3,1,5,10)            44.2506         calculate D2E/DX2 analytically  !
 ! D5    D(4,1,5,6)            121.367          calculate D2E/DX2 analytically  !
 ! D6    D(4,1,5,10)           -73.4398         calculate D2E/DX2 analytically  !
 ! D7    D(1,5,6,7)             26.3505         calculate D2E/DX2 analytically  !
 ! D8    D(1,5,6,8)            170.8074         calculate D2E/DX2 analytically  !
 ! D9    D(1,5,6,9)            -80.3219         calculate D2E/DX2 analytically  !
 ! D10   D(10,5,6,7)          -140.8174         calculate D2E/DX2 analytically  !
 ! D11   D(10,5,6,8)             3.6395         calculate D2E/DX2 analytically  !
 ! D12   D(10,5,6,9)           112.5102         calculate D2E/DX2 analytically  !
 ! D13   D(5,6,11,12)         -110.6315         calculate D2E/DX2 analytically  !
 ! D14   D(7,6,11,12)          133.0022         calculate D2E/DX2 analytically  !
 ! D15   D(8,6,11,12)           11.1619         calculate D2E/DX2 analytically  !
 --------------------------------------------------------------------------------
 Trust Radius=3.00D-01 FncErr=1.00D-07 GrdErr=1.00D-06 EigMax=2.50D+02 EigMin=1.00D-04
 Number of steps in this run=    100 maximum allowed number of steps=    100.
 Search for a saddle point of order  1.
 GradGradGradGradGradGradGradGradGradGradGradGradGradGradGradGradGradGrad

                          Input orientation:                          
 ---------------------------------------------------------------------
 Center     Atomic      Atomic             Coordinates (Angstroms)
 Number     Number       Type             X           Y           Z
 ---------------------------------------------------------------------
      1          6           0       -1.345168    1.228096   -0.001882
      2          1           0       -0.833700    1.819771    0.759107
      3          1           0       -2.426636    1.194159    0.193262
      4          1           0       -1.181414    1.640612   -1.005848
      5          6           0       -0.764936   -0.153542   -0.026932
      6          6           0        0.344502   -0.514129    0.958149
      7          1           0        0.360616    0.059744    1.897434
      8          1           0        0.676276   -1.569245    1.055823
      9          1           0        1.137203    0.085339    0.144580
     10          8           0       -1.236381   -1.130703   -0.580700
     11          8           0        2.012803    0.825379   -0.483757
     12          1           0        2.421953   -0.039698   -0.722307
 ---------------------------------------------------------------------
                    Distance matrix (angstroms):
                    1          2          3          4          5
     1  C    0.000000
     2  H    1.091230   0.000000
     3  H    1.099457   1.802503   0.000000
     4  H    1.097694   1.807780   1.785431   0.000000
     5  C    1.498740   2.125218   2.150821   2.085838   0.000000
     6  C    2.609979   2.621997   3.344025   3.290686   1.526847
     7  H    2.807516   2.412442   3.458305   3.647745   2.239541
     8  H    3.609722   3.722029   4.243639   4.243192   2.292088
     9  H    2.736697   2.696360   3.732667   3.019660   1.924738
    10  O    2.431213   3.265353   2.724098   2.804275   1.218098
    11  O    3.416190   3.261305   4.505882   3.337695   2.980405
    12  H    4.039495   4.031314   5.086206   3.985987   3.263858
                    6          7          8          9         10
     6  C    0.000000
     7  H    1.100839   0.000000
     8  H    1.110353   1.860526   0.000000
     9  H    1.284380   1.917352   1.944342   0.000000
    10  O    2.290723   3.179420   2.555148   2.763819   0.000000
    11  O    2.580040   2.997665   3.144970   1.307342   3.793792
    12  H    2.713821   3.334973   2.923808   1.554899   3.820177
                   11         12
    11  O    0.000000
    12  H    0.986239   0.000000
 Stoichiometry    C3H7O2(1-)
 Framework group  C1[X(C3H7O2)]
 Deg. of freedom    30
 Full point group                 C1      NOp   1
 Largest Abelian subgroup         C1      NOp   1
 Largest concise Abelian subgroup C1      NOp   1
                         Standard orientation:                         
 ---------------------------------------------------------------------
 Center     Atomic      Atomic             Coordinates (Angstroms)
 Number     Number       Type             X           Y           Z
 ---------------------------------------------------------------------
      1          6           0       -1.022957    1.318413    0.173832
      2          1           0       -0.421394    1.708623    0.996414
      3          1           0       -2.094994    1.451390    0.378426
      4          1           0       -0.780217    1.820028   -0.771891
      5          6           0       -0.696155   -0.129338   -0.034583
      6          6           0        0.323511   -0.802681    0.880923
      7          1           0        0.432880   -0.365094    1.885116
      8          1           0        0.462510   -1.903509    0.839191
      9          1           0        1.216702   -0.253914    0.138833
     10          8           0       -1.328308   -0.929253   -0.701128
     11          8           0        2.214770    0.393813   -0.402879
     12          1           0        2.466422   -0.492361   -0.755065
 ---------------------------------------------------------------------
 Rotational constants (GHZ):           6.0525973           3.0282151           2.5640596
 Standard basis: 6-31+G(d) (6D, 7F)
 There are   109 symmetry adapted cartesian basis functions of A   symmetry.
 There are   109 symmetry adapted basis functions of A   symmetry.
   109 basis functions,   188 primitive gaussians,   109 cartesian basis functions
    21 alpha electrons       21 beta electrons
       nuclear repulsion energy       172.6499017377 Hartrees.
 NAtoms=   12 NActive=   12 NUniq=   12 SFac= 1.00D+00 NAtFMM=   60 NAOKFM=F Big=F
 Integral buffers will be    131072 words long.
 Raffenetti 2 integral format.
 Two-electron integral symmetry is turned on.
 Nuclear repulsion after empirical dispersion term =      172.6370721764 Hartrees.
 Force inversion solution in PCM.
 ------------------------------------------------------------------------------
 Polarizable Continuum Model (PCM)
 =================================
 Model                : PCM.
 Atomic radii         : UFF (Universal Force Field).
 Polarization charges : Total charges.
 Charge compensation  : None.
 Solution method      : Matrix inversion.
 Cavity type          : Scaled VdW (van der Waals Surface) (Alpha=1.100).
 Cavity algorithm     : GePol (No added spheres)
                        Default sphere list used, NSphG=   12.
                        Lebedev-Laikov grids with approx.  5.0 points / Ang**2.
                        Smoothing algorithm: York/Karplus (Gamma=1.0000).
                        Polarization charges: spherical gaussians, with
                                              point-specific exponents (IZeta= 3).
                        Self-potential: point-specific (ISelfS= 7).
                        Self-field    : sphere-specific E.n sum rule (ISelfD= 2).
 1st derivatives      : Analytical E(r).r(x)/FMM algorithm (CHGder, D1EAlg=3).
                        Cavity 1st derivative terms included.
 2nd derivatives      : Analytical E(r).r(xy)/FMM algorithm (CHGder, D2EAlg=3).
                        Cavity 2nd derivative terms included.
 Solvent              : Water, Eps=  78.355300 Eps(inf)=   1.777849
 ------------------------------------------------------------------------------
 Spheres list:
 ISph  on   Nord     Re0    Alpha      Xe            Ye            Ze
    1   C      1    1.9255  1.100     -1.022957      1.318413      0.173832
    2   H      2    1.4430  1.100     -0.421394      1.708623      0.996414
    3   H      3    1.4430  1.100     -2.094994      1.451390      0.378426
    4   H      4    1.4430  1.100     -0.780217      1.820028     -0.771891
    5   C      5    1.9255  1.100     -0.696155     -0.129338     -0.034583
    6   C      6    1.9255  1.100      0.323511     -0.802681      0.880923
    7   H      7    1.4430  1.100      0.432880     -0.365094      1.885116
    8   H      8    1.4430  1.100      0.462510     -1.903509      0.839191
    9   H      9    1.4430  1.100      1.216702     -0.253914      0.138833
   10   O     10    1.7500  1.100     -1.328308     -0.929253     -0.701128
   11   O     11    1.7500  1.100      2.214770      0.393813     -0.402879
   12   H     12    1.4430  1.100      2.466422     -0.492361     -0.755065
 ------------------------------------------------------------------------------
 One-electron integrals computed using PRISM.
 PrsmSu:  requested number of processors reduced to:  30 ShMem   1 Linda.
 NBasis=   109 RedAO= T EigKep=  1.36D-04  NBF=   109
 NBsUse=   109 1.00D-06 EigRej= -1.00D+00 NBFU=   109
 ExpMin= 4.38D-02 ExpMax= 5.48D+03 ExpMxC= 8.25D+02 IAcc=3 IRadAn=         5 AccDes= 0.00D+00
 Harris functional with IExCor=  402 and IRadAn=       5 diagonalized for initial guess.
 HarFok:  IExCor=  402 AccDes= 0.00D+00 IRadAn=         5 IDoV= 1 UseB2=F ITyADJ=14
 ICtDFT=  3500011 ScaDFX=  1.000000  1.000000  1.000000  1.000000
 FoFCou: FMM=F IPFlag=           0 FMFlag=      100000 FMFlg1=           0
         NFxFlg=           0 DoJE=T BraDBF=F KetDBF=T FulRan=T
         wScrn=  0.000000 ICntrl=       500 IOpCl=  0 I1Cent=   200000004 NGrid=           0
         NMat0=    1 NMatS0=      1 NMatT0=    0 NMatD0=    1 NMtDS0=    0 NMtDT0=    0
 Petite list used in FoFCou.
 Keep R1 ints in memory in canonical form, NReq=47891130.
 Requested convergence on RMS density matrix=1.00D-08 within 128 cycles.
 Requested convergence on MAX density matrix=1.00D-06.
 Requested convergence on             energy=1.00D-06.
 No special actions if energy rises.
 Inv3:  Mode=1 IEnd=     3636603.
 Iteration    1 A*A^-1 deviation from unit magnitude is 3.77D-15 for   1067.
 Iteration    1 A*A^-1 deviation from orthogonality  is 2.37D-15 for   1094    226.
 Iteration    1 A^-1*A deviation from unit magnitude is 3.55D-15 for   1078.
 Iteration    1 A^-1*A deviation from orthogonality  is 1.37D-15 for   1087   1032.
 Error on total polarization charges =  0.02342
 SCF Done:  E(RB3LYP) =  -269.069562050     A.U. after   14 cycles
            NFock= 14  Conv=0.19D-08     -V/T= 2.0094
 DoSCS=F DFT=T ScalE2(SS,OS)=  1.000000  1.000000
 Range of M.O.s used for correlation:     1   109
 NBasis=   109 NAE=    21 NBE=    21 NFC=     0 NFV=     0
 NROrb=    109 NOA=    21 NOB=    21 NVA=    88 NVB=    88

 **** Warning!!: The largest alpha MO coefficient is  0.25699285D+02

 PrsmSu:  requested number of processors reduced to:  30 ShMem   1 Linda.
 Symmetrizing basis deriv contribution to polar:
 IMax=3 JMax=2 DiffMx= 0.00D+00
 G2DrvN: will do    13 centers at a time, making    1 passes.
 Calling FoFCou, ICntrl=  3107 FMM=F I1Cent=   0 AccDes= 0.00D+00.
 NEqPCM:  Using equilibrium solvation (IEInf=0, Eps=  78.3553, EpsInf=   1.7778)
 G2PCM: DoFxE=T DoFxN=T DoGrad=T DoDP/DQ/DG/TGxP=FFFF NFrqRd=   0 IEInf=0 SqF1=F DoCFld=F IF1Alg=4.
 CoulSu:  requested number of processors reduced to:  31 ShMem   1 Linda.
 CoulSu:  requested number of processors reduced to:  30 ShMem   1 Linda.
 CoulSu:  requested number of processors reduced to:  31 ShMem   1 Linda.
 CoulSu:  requested number of processors reduced to:  26 ShMem   1 Linda.
 CoulSu:  requested number of processors reduced to:  29 ShMem   1 Linda.
 CoulSu:  requested number of processors reduced to:  30 ShMem   1 Linda.
 CoulSu:  requested number of processors reduced to:  29 ShMem   1 Linda.
 CoulSu:  requested number of processors reduced to:  30 ShMem   1 Linda.
 End of G2Drv F.D. properties file   721 does not exist.
 End of G2Drv F.D. properties file   722 does not exist.
 End of G2Drv F.D. properties file   788 does not exist.
          IDoAtm=111111111111
 NEqPCM:  Using equilibrium solvation (IEInf=0, Eps=  78.3553, EpsInf=   1.7778)
          Differentiating once with respect to nuclear coordinates.
 Keep R1 ints in memory in canonical form, NReq=47790895.
 CoulSu:  requested number of processors reduced to:  30 ShMem   1 Linda.
          There are    39 degrees of freedom in the 1st order CPHF.  IDoFFX=6 NUNeed=     0.
     33 vectors produced by pass  0 Test12= 4.74D-15 2.56D-09 XBig12= 1.35D-01 1.31D-01.
 AX will form    33 AO Fock derivatives at one time.
     33 vectors produced by pass  1 Test12= 4.74D-15 2.56D-09 XBig12= 4.39D-03 1.75D-02.
     33 vectors produced by pass  2 Test12= 4.74D-15 2.56D-09 XBig12= 7.26D-05 1.35D-03.
     33 vectors produced by pass  3 Test12= 4.74D-15 2.56D-09 XBig12= 3.31D-07 8.51D-05.
     33 vectors produced by pass  4 Test12= 4.74D-15 2.56D-09 XBig12= 6.12D-10 4.32D-06.
     26 vectors produced by pass  5 Test12= 4.74D-15 2.56D-09 XBig12= 6.58D-13 1.10D-07.
      1 vectors produced by pass  6 Test12= 4.74D-15 2.56D-09 XBig12= 6.74D-16 3.78D-09.
 InvSVY:  IOpt=1 It=  1 EMax= 1.78D-15
 Solved reduced A of dimension   192 with    33 vectors.
 End of Minotr F.D. properties file   721 does not exist.
 End of Minotr F.D. properties file   722 does not exist.
 End of Minotr F.D. properties file   788 does not exist.

 **********************************************************************

            Population analysis using the SCF Density.

 **********************************************************************

 Orbital symmetries:
       Occupied  (A) (A) (A) (A) (A) (A) (A) (A) (A) (A) (A) (A)
                 (A) (A) (A) (A) (A) (A) (A) (A) (A)
       Virtual   (A) (A) (A) (A) (A) (A) (A) (A) (A) (A) (A) (A)
                 (A) (A) (A) (A) (A) (A) (A) (A) (A) (A) (A) (A)
                 (A) (A) (A) (A) (A) (A) (A) (A) (A) (A) (A) (A)
                 (A) (A) (A) (A) (A) (A) (A) (A) (A) (A) (A) (A)
                 (A) (A) (A) (A) (A) (A) (A) (A) (A) (A) (A) (A)
                 (A) (A) (A) (A) (A) (A) (A) (A) (A) (A) (A) (A)
                 (A) (A) (A) (A) (A) (A) (A) (A) (A) (A) (A) (A)
                 (A) (A) (A) (A)
 The electronic state is 1-A.
 Alpha  occ. eigenvalues --  -19.11434 -19.06799 -10.25727 -10.18214 -10.13314
 Alpha  occ. eigenvalues --   -1.02119  -0.89001  -0.74467  -0.66535  -0.50575
 Alpha  occ. eigenvalues --   -0.44073  -0.43745  -0.42962  -0.38667  -0.37676
 Alpha  occ. eigenvalues --   -0.36429  -0.35381  -0.32824  -0.23517  -0.22992
 Alpha  occ. eigenvalues --   -0.17134
 Alpha virt. eigenvalues --    0.00426   0.01627   0.03710   0.04975   0.05482
 Alpha virt. eigenvalues --    0.06517   0.07624   0.08250   0.09467   0.10248
 Alpha virt. eigenvalues --    0.11393   0.12428   0.14546   0.16205   0.19671
 Alpha virt. eigenvalues --    0.20502   0.20825   0.22275   0.24818   0.25759
 Alpha virt. eigenvalues --    0.26994   0.27089   0.29554   0.30023   0.31293
 Alpha virt. eigenvalues --    0.31792   0.34400   0.35723   0.37394   0.40745
 Alpha virt. eigenvalues --    0.48586   0.63653   0.68896   0.69479   0.72522
 Alpha virt. eigenvalues --    0.73183   0.75626   0.79683   0.83723   0.86700
 Alpha virt. eigenvalues --    0.95502   1.00579   1.01327   1.06218   1.07522
 Alpha virt. eigenvalues --    1.09950   1.11508   1.15227   1.21905   1.24252
 Alpha virt. eigenvalues --    1.24677   1.27717   1.29051   1.32563   1.36318
 Alpha virt. eigenvalues --    1.38201   1.47047   1.49981   1.60251   1.70391
 Alpha virt. eigenvalues --    1.76102   1.79154   1.82226   1.83281   1.84904
 Alpha virt. eigenvalues --    1.87189   1.89474   1.96508   1.99397   2.03806
 Alpha virt. eigenvalues --    2.08336   2.18177   2.23108   2.29545   2.33797
 Alpha virt. eigenvalues --    2.40601   2.49138   2.53173   2.55409   2.66815
 Alpha virt. eigenvalues --    2.76498   3.00249   3.12653   4.02142   4.20694
 Alpha virt. eigenvalues --    4.25544   4.36890   4.56256
          Condensed to atoms (all electrons):
               1          2          3          4          5          6
     1  C    6.112511   0.386586   0.408090   0.349879   0.004049  -0.436534
     2  H    0.386586   0.485089  -0.024335  -0.022428  -0.081451   0.030906
     3  H    0.408090  -0.024335   0.474569  -0.023868  -0.054448  -0.007341
     4  H    0.349879  -0.022428  -0.023868   0.484653  -0.022481   0.007109
     5  C    0.004049  -0.081451  -0.054448  -0.022481   5.075332   0.208801
     6  C   -0.436534   0.030906  -0.007341   0.007109   0.208801   6.501358
     7  H    0.021936  -0.000923   0.000087   0.000129  -0.027440   0.347534
     8  H    0.004916   0.000166  -0.000111  -0.000076  -0.056578   0.401935
     9  H    0.001365   0.000245   0.000372  -0.000597  -0.024194   0.246608
    10  O   -0.139296   0.007118  -0.002049  -0.000480   0.487176  -0.224596
    11  O   -0.011193  -0.001191  -0.000138   0.000977  -0.014595  -0.213889
    12  H   -0.002749   0.000030  -0.000004   0.000014   0.001138   0.019722
               7          8          9         10         11         12
     1  C    0.021936   0.004916   0.001365  -0.139296  -0.011193  -0.002749
     2  H   -0.000923   0.000166   0.000245   0.007118  -0.001191   0.000030
     3  H    0.000087  -0.000111   0.000372  -0.002049  -0.000138  -0.000004
     4  H    0.000129  -0.000076  -0.000597  -0.000480   0.000977   0.000014
     5  C   -0.027440  -0.056578  -0.024194   0.487176  -0.014595   0.001138
     6  C    0.347534   0.401935   0.246608  -0.224596  -0.213889   0.019722
     7  H    0.520420  -0.030733  -0.016375   0.006427  -0.001957   0.000358
     8  H   -0.030733   0.517384  -0.014389  -0.007144   0.004564  -0.001165
     9  H   -0.016375  -0.014389   0.484447  -0.006451   0.019604  -0.002834
    10  O    0.006427  -0.007144  -0.006451   8.472324  -0.000506  -0.000907
    11  O   -0.001957   0.004564   0.019604  -0.000506   9.143593   0.158520
    12  H    0.000358  -0.001165  -0.002834  -0.000907   0.158520   0.426490
 Mulliken charges:
               1
     1  C   -0.699560
     2  H    0.220190
     3  H    0.229177
     4  H    0.227169
     5  C    0.504691
     6  C   -0.881614
     7  H    0.180536
     8  H    0.181232
     9  H    0.312200
    10  O   -0.591615
    11  O   -1.083790
    12  H    0.401386
 Sum of Mulliken charges =  -1.00000
 Mulliken charges with hydrogens summed into heavy atoms:
               1
     1  C   -0.023025
     5  C    0.504691
     6  C   -0.207647
    10  O   -0.591615
    11  O   -0.682404
 APT charges:
               1
     1  C   -1.261159
     2  H    0.371102
     3  H    0.558701
     4  H    0.385113
     5  C    0.199008
     6  C   -1.228176
     7  H    0.405880
     8  H    0.456123
     9  H    0.417702
    10  O   -0.478945
    11  O   -1.353760
    12  H    0.528412
 Sum of APT charges =  -1.00000
 APT charges with hydrogens summed into heavy atoms:
               1
     1  C    0.053757
     5  C    0.199008
     6  C    0.051529
    10  O   -0.478945
    11  O   -0.825349
 Electronic spatial extent (au):  <R**2>=            556.0984
 Charge=             -1.0000 electrons
 Dipole moment (field-independent basis, Debye):
    X=             -4.4274    Y=              0.8503    Z=              2.2901  Tot=              5.0567
 Quadrupole moment (field-independent basis, Debye-Ang):
   XX=            -56.6251   YY=            -38.4169   ZZ=            -38.5392
   XY=            -11.8515   XZ=             -1.6015   YZ=              0.8896
 Traceless Quadrupole moment (field-independent basis, Debye-Ang):
   XX=            -12.0980   YY=              6.1101   ZZ=              5.9879
   XY=            -11.8515   XZ=             -1.6015   YZ=              0.8896
 Octapole moment (field-independent basis, Debye-Ang**2):
  XXX=            -42.2836  YYY=              1.2708  ZZZ=             -0.9012  XYY=              0.3983
  XXY=            -11.1394  XXZ=              7.1783  XZZ=             -0.1260  YZZ=              2.5966
  YYZ=              0.7922  XYZ=              7.1645
 Hexadecapole moment (field-independent basis, Debye-Ang**3):
 XXXX=           -544.1909 YYYY=           -223.3904 ZZZZ=           -133.5636 XXXY=            -55.9363
 XXXZ=             -5.0892 YYYX=             -8.6107 YYYZ=              2.9455 ZZZX=              0.8145
 ZZZY=              7.0474 XXYY=           -117.5912 XXZZ=           -104.0625 YYZZ=            -60.1922
 XXYZ=              9.2719 YYXZ=             -0.6748 ZZXY=             -7.1406
 N-N= 1.726370721764D+02 E-N=-9.830598090095D+02  KE= 2.665649312689D+02
  Exact polarizability:       0.000       0.000       0.000       0.000       0.000       0.000
 Approx polarizability:      94.561       5.817      75.214       6.459      -1.131      73.698
 PrsmSu:  requested number of processors reduced to:  30 ShMem   1 Linda.
 PrsmSu:  requested number of processors reduced to:  31 ShMem   1 Linda.
 D2PCM: PCM CHGder 2nd derivatives, FixD1E=F FixD2E=F DoIter=F DoCFld=F I1PDM=0
 CoulSu:  requested number of processors reduced to:  30 ShMem   1 Linda.
 CoulSu:  requested number of processors reduced to:  30 ShMem   1 Linda.
 CoulSu:  requested number of processors reduced to:  29 ShMem   1 Linda.
 CoulSu:  requested number of processors reduced to:  30 ShMem   1 Linda.
 CoulSu:  requested number of processors reduced to:  29 ShMem   1 Linda.
 CoulSu:  requested number of processors reduced to:  29 ShMem   1 Linda.
 CoulSu:  requested number of processors reduced to:  30 ShMem   1 Linda.
 CoulSu:  requested number of processors reduced to:  30 ShMem   1 Linda.
 CoulSu:  requested number of processors reduced to:  30 ShMem   1 Linda.
 CoulSu:  requested number of processors reduced to:  30 ShMem   1 Linda.
 CoulSu:  requested number of processors reduced to:  29 ShMem   1 Linda.
 CoulSu:  requested number of processors reduced to:  30 ShMem   1 Linda.
 CoulSu:  requested number of processors reduced to:  30 ShMem   1 Linda.
 CoulSu:  requested number of processors reduced to:  29 ShMem   1 Linda.
 CoulSu:  requested number of processors reduced to:  30 ShMem   1 Linda.
 CoulSu:  requested number of processors reduced to:  30 ShMem   1 Linda.
 Calling FoFJK, ICntrl=    100127 FMM=F ISym2X=0 I1Cent= 0 IOpClX= 0 NMat=1 NMatS=1 NMatT=0.
 CoulSu:  requested number of processors reduced to:  31 ShMem   1 Linda.
 ***** Axes restored to original set *****
 -------------------------------------------------------------------
 Center     Atomic                   Forces (Hartrees/Bohr)
 Number     Number              X              Y              Z
 -------------------------------------------------------------------
      1        6           0.005284299    0.001101322   -0.014984408
      2        1          -0.001475112    0.004385388   -0.002778091
      3        1           0.003713696   -0.001698504   -0.000646117
      4        1          -0.002786711    0.008578966    0.002395224
      5        6           0.024521204   -0.043622478    0.102955270
      6        6          -0.012819945    0.027598221   -0.022577726
      7        1           0.003631309   -0.000639769   -0.005570215
      8        1          -0.015030380    0.009257180   -0.003272598
      9        1           0.003573109    0.007025200    0.025416639
     10        8          -0.032069220   -0.016208858   -0.059286995
     11        8           0.017203432   -0.011159636   -0.017285256
     12        1           0.006254319    0.015382968   -0.004365727
 -------------------------------------------------------------------
 Cartesian Forces:  Max     0.102955270 RMS     0.024620462
 FormGI is forming the generalized inverse of G from B-inverse, IUseBI=4.

 GradGradGradGradGradGradGradGradGradGradGradGradGradGradGradGradGradGrad
 Berny optimization.
 Internal  Forces:  Max     0.053208820 RMS     0.017231704
 Search for a saddle point.
 Step number   1 out of a maximum of  100
 All quantities printed in internal units (Hartrees-Bohrs-Radians)
 Swapping is turned off.
 Second derivative matrix not updated -- analytic derivatives used.
 ITU=  0
     Eigenvalues ---   -0.03206  -0.00090  -0.00008   0.00622   0.01988
     Eigenvalues ---    0.03053   0.03477   0.04525   0.05424   0.05737
     Eigenvalues ---    0.06149   0.07528   0.08767   0.09440   0.10744
     Eigenvalues ---    0.12907   0.13309   0.14281   0.18151   0.20814
     Eigenvalues ---    0.21426   0.28236   0.31141   0.32571   0.33298
     Eigenvalues ---    0.33826   0.34719   0.35345   0.44766   0.85013
 Eigenvectors required to have negative eigenvalues:
                          R10       R9        A16       D10       D7
   1                   -0.69961   0.53800   0.25066  -0.18407  -0.17325
                          A12       R5        D8        A11       D11
   1                   -0.15999  -0.15145   0.08939   0.08044   0.07857
 RFO step:  Lambda0=1.155961956D-05 Lambda=-5.10323580D-02.
 Linear search not attempted -- option 19 set.
 Maximum step size (   0.300) exceeded in Quadratic search.
    -- Step size scaled by   0.651
 Iteration  1 RMS(Cart)=  0.14412665 RMS(Int)=  0.01406293
 Iteration  2 RMS(Cart)=  0.01567683 RMS(Int)=  0.00134919
 Iteration  3 RMS(Cart)=  0.00018986 RMS(Int)=  0.00133843
 Iteration  4 RMS(Cart)=  0.00000011 RMS(Int)=  0.00133843
 Variable       Old X    -DE/DX   Delta X   Delta X   Delta X     New X
                                 (Linear)    (Quad)   (Total)
    R1        2.06213  -0.00025   0.00000   0.00169   0.00169   2.06382
    R2        2.07767  -0.00370   0.00000  -0.00363  -0.00363   2.07404
    R3        2.07434   0.00060   0.00000  -0.00026  -0.00026   2.07408
    R4        2.83221   0.00922   0.00000   0.02417   0.02417   2.85637
    R5        2.88532  -0.02715   0.00000  -0.11437  -0.11437   2.77095
    R6        2.30187   0.05236   0.00000   0.03920   0.03920   2.34107
    R7        2.08028  -0.00502   0.00000  -0.00977  -0.00977   2.07051
    R8        2.09826  -0.01358   0.00000  -0.02170  -0.02170   2.07657
    R9        2.42713   0.01978   0.00000   0.03521   0.03521   2.46234
   R10        2.47052   0.02854   0.00000   0.05065   0.05065   2.52117
   R11        1.86372  -0.00984   0.00000  -0.01425  -0.01425   1.84948
    A1        1.93264  -0.00131   0.00000  -0.01620  -0.01601   1.91663
    A2        1.94350  -0.00803   0.00000  -0.01412  -0.01521   1.92829
    A3        1.90714   0.00587   0.00000   0.03326   0.03281   1.93995
    A4        1.89724  -0.00358   0.00000  -0.01552  -0.01525   1.88199
    A5        1.93406  -0.00605   0.00000  -0.02766  -0.02744   1.90662
    A6        1.84772   0.01350   0.00000   0.04190   0.04145   1.88917
    A7        2.08087  -0.01849   0.00000  -0.00572  -0.00653   2.07433
    A8        2.21091  -0.03238   0.00000  -0.08547  -0.08693   2.12397
    A9        1.96609   0.05321   0.00000   0.10743   0.10720   2.07329
   A10        2.02418   0.00222   0.00000  -0.00379  -0.00523   2.01896
   A11        2.09242  -0.01584   0.00000  -0.05427  -0.05473   2.03768
   A12        1.50030   0.03434   0.00000   0.14795   0.14857   1.64887
   A13        1.99977   0.00465   0.00000   0.01138   0.00975   2.00952
   A14        1.86307  -0.01263   0.00000  -0.04707  -0.04811   1.81495
   A15        1.89107  -0.00685   0.00000  -0.02277  -0.02070   1.87037
   A16        1.46820   0.02616   0.00000   0.12033   0.12033   1.58853
   A17        3.15688   0.00056   0.00000   0.01992   0.01994   3.17682
   A18        2.94034   0.01360   0.00000   0.04073   0.04068   2.98101
    D1        0.02339  -0.01043   0.00000   0.13219   0.13377   0.15716
    D2        2.90656   0.00898   0.00000   0.22978   0.22717   3.13372
    D3       -2.11085  -0.00877   0.00000   0.14829   0.15034  -1.96050
    D4        0.77232   0.01064   0.00000   0.24588   0.24375   1.01606
    D5        2.11825  -0.00917   0.00000   0.15691   0.15956   2.27782
    D6       -1.28177   0.01024   0.00000   0.25450   0.25296  -1.02880
    D7        0.45990   0.00588   0.00000   0.02147   0.02367   0.48358
    D8        2.98115  -0.00710   0.00000  -0.05117  -0.04766   2.93349
    D9       -1.40188   0.00305   0.00000   0.00210   0.00298  -1.39890
   D10       -2.45773  -0.00029   0.00000  -0.03791  -0.04011  -2.49784
   D11        0.06352  -0.01328   0.00000  -0.11056  -0.11145  -0.04793
   D12        1.96367  -0.00312   0.00000  -0.05729  -0.06080   1.90287
   D13       -1.93088   0.00463   0.00000   0.07544   0.07569  -1.85520
   D14        2.32133  -0.00403   0.00000   0.04989   0.04993   2.37126
   D15        0.19481  -0.00142   0.00000   0.06940   0.06911   0.26392
         Item               Value     Threshold  Converged?
 Maximum Force            0.053209     0.000450     NO 
 RMS     Force            0.017232     0.000300     NO 
 Maximum Displacement     0.479724     0.001800     NO 
 RMS     Displacement     0.148078     0.001200     NO 
 Predicted change in Energy=-2.585438D-02
 GradGradGradGradGradGradGradGradGradGradGradGradGradGradGradGradGradGrad

                          Input orientation:                          
 ---------------------------------------------------------------------
 Center     Atomic      Atomic             Coordinates (Angstroms)
 Number     Number       Type             X           Y           Z
 ---------------------------------------------------------------------
      1          6           0       -1.393674    1.213236    0.013055
      2          1           0       -0.811529    1.888762    0.643538
      3          1           0       -2.422818    1.147942    0.388802
      4          1           0       -1.435273    1.589636   -1.017102
      5          6           0       -0.784138   -0.169701   -0.012759
      6          6           0        0.312527   -0.476909    0.910852
      7          1           0        0.321347    0.096092    1.844705
      8          1           0        0.594680   -1.534362    1.009355
      9          1           0        1.225132    0.098094    0.179848
     10          8           0       -1.293153   -1.093318   -0.662812
     11          8           0        2.226476    0.762151   -0.400053
     12          1           0        2.625541   -0.075838   -0.710500
 ---------------------------------------------------------------------
                    Distance matrix (angstroms):
                    1          2          3          4          5
     1  C    0.000000
     2  H    1.092125   0.000000
     3  H    1.097537   1.791635   0.000000
     4  H    1.097556   1.798960   1.773951   0.000000
     5  C    1.511528   2.160729   2.140726   2.127898   0.000000
     6  C    2.563933   2.632748   3.224095   3.323013   1.466324
     7  H    2.746680   2.437186   3.279708   3.675095   2.177823
     8  H    3.534892   3.718739   4.084744   4.241060   2.192750
     9  H    2.851229   2.751271   3.801761   3.276453   2.036168
    10  O    2.405638   3.291096   2.721265   2.709974   1.238843
    11  O    3.671460   3.404086   4.731496   3.804456   3.175238
    12  H    4.282445   4.184080   5.309617   4.399775   3.481604
                    6          7          8          9         10
     6  C    0.000000
     7  H    1.095669   0.000000
     8  H    1.098871   1.852269   0.000000
     9  H    1.303013   1.894355   1.936611   0.000000
    10  O    2.331220   3.210755   2.560190   2.910550   0.000000
    11  O    2.630007   3.018623   3.150104   1.334145   3.987429
    12  H    2.853011   3.444988   3.034731   1.668567   4.048914
                   11         12
    11  O    0.000000
    12  H    0.978701   0.000000
 Stoichiometry    C3H7O2(1-)
 Framework group  C1[X(C3H7O2)]
 Deg. of freedom    30
 Full point group                 C1      NOp   1
 Largest Abelian subgroup         C1      NOp   1
 Largest concise Abelian subgroup C1      NOp   1
                         Standard orientation:                         
 ---------------------------------------------------------------------
 Center     Atomic      Atomic             Coordinates (Angstroms)
 Number     Number       Type             X           Y           Z
 ---------------------------------------------------------------------
      1          6           0       -1.137460    1.285084    0.077615
      2          1           0       -0.460095    1.856567    0.715831
      3          1           0       -2.161315    1.352613    0.467162
      4          1           0       -1.138409    1.691042   -0.942104
      5          6           0       -0.725739   -0.167630    0.008154
      6          6           0        0.328384   -0.648043    0.907117
      7          1           0        0.427292   -0.106948    1.854705
      8          1           0        0.462431   -1.736595    0.974980
      9          1           0        1.303345   -0.185330    0.176918
     10          8           0       -1.365282   -0.994316   -0.656909
     11          8           0        2.380266    0.349246   -0.401368
     12          1           0        2.655772   -0.527245   -0.738589
 ---------------------------------------------------------------------
 Rotational constants (GHZ):           6.3324994           2.7233398           2.3670924
 Standard basis: 6-31+G(d) (6D, 7F)
 There are   109 symmetry adapted cartesian basis functions of A   symmetry.
 There are   109 symmetry adapted basis functions of A   symmetry.
   109 basis functions,   188 primitive gaussians,   109 cartesian basis functions
    21 alpha electrons       21 beta electrons
       nuclear repulsion energy       170.4621325556 Hartrees.
 NAtoms=   12 NActive=   12 NUniq=   12 SFac= 1.00D+00 NAtFMM=   60 NAOKFM=F Big=F
 Integral buffers will be    131072 words long.
 Raffenetti 2 integral format.
 Two-electron integral symmetry is turned on.
 Nuclear repulsion after empirical dispersion term =      170.4496071073 Hartrees.
 ------------------------------------------------------------------------------
 Polarizable Continuum Model (PCM)
 =================================
 Model                : PCM.
 Atomic radii         : UFF (Universal Force Field).
 Polarization charges : Total charges.
 Charge compensation  : None.
 Solution method      : Matrix inversion.
 Cavity type          : Scaled VdW (van der Waals Surface) (Alpha=1.100).
 Cavity algorithm     : GePol (No added spheres)
                        Default sphere list used, NSphG=   12.
                        Lebedev-Laikov grids with approx.  5.0 points / Ang**2.
                        Smoothing algorithm: York/Karplus (Gamma=1.0000).
                        Polarization charges: spherical gaussians, with
                                              point-specific exponents (IZeta= 3).
                        Self-potential: point-specific (ISelfS= 7).
                        Self-field    : sphere-specific E.n sum rule (ISelfD= 2).
 1st derivatives      : Analytical E(r).r(x)/FMM algorithm (CHGder, D1EAlg=3).
                        Cavity 1st derivative terms included.
 Solvent              : Water, Eps=  78.355300 Eps(inf)=   1.777849
 ------------------------------------------------------------------------------
 Spheres list:
 ISph  on   Nord     Re0    Alpha      Xe            Ye            Ze
    1   C      1    1.9255  1.100     -1.137460      1.285084      0.077615
    2   H      2    1.4430  1.100     -0.460095      1.856567      0.715831
    3   H      3    1.4430  1.100     -2.161315      1.352613      0.467162
    4   H      4    1.4430  1.100     -1.138409      1.691042     -0.942104
    5   C      5    1.9255  1.100     -0.725739     -0.167630      0.008154
    6   C      6    1.9255  1.100      0.328384     -0.648043      0.907117
    7   H      7    1.4430  1.100      0.427292     -0.106948      1.854705
    8   H      8    1.4430  1.100      0.462431     -1.736595      0.974980
    9   H      9    1.4430  1.100      1.303345     -0.185330      0.176918
   10   O     10    1.7500  1.100     -1.365282     -0.994316     -0.656909
   11   O     11    1.7500  1.100      2.380266      0.349246     -0.401368
   12   H     12    1.4430  1.100      2.655772     -0.527245     -0.738589
 ------------------------------------------------------------------------------
 One-electron integrals computed using PRISM.
 PrsmSu:  requested number of processors reduced to:  30 ShMem   1 Linda.
 NBasis=   109 RedAO= T EigKep=  1.46D-04  NBF=   109
 NBsUse=   109 1.00D-06 EigRej= -1.00D+00 NBFU=   109
 Initial guess from the checkpoint file:  "OHTS1.chk"
 B after Tr=     0.000000   -0.000000   -0.000000
         Rot=    0.999025    0.043170    0.002867   -0.008836 Ang=   5.06 deg.
 ExpMin= 4.38D-02 ExpMax= 5.48D+03 ExpMxC= 8.25D+02 IAcc=3 IRadAn=         5 AccDes= 0.00D+00
 Harris functional with IExCor=  402 and IRadAn=       5 diagonalized for initial guess.
 HarFok:  IExCor=  402 AccDes= 0.00D+00 IRadAn=         5 IDoV= 1 UseB2=F ITyADJ=14
 ICtDFT=  3500011 ScaDFX=  1.000000  1.000000  1.000000  1.000000
 FoFCou: FMM=F IPFlag=           0 FMFlag=      100000 FMFlg1=           0
         NFxFlg=           0 DoJE=T BraDBF=F KetDBF=T FulRan=T
         wScrn=  0.000000 ICntrl=       500 IOpCl=  0 I1Cent=   200000004 NGrid=           0
         NMat0=    1 NMatS0=      1 NMatT0=    0 NMatD0=    1 NMtDS0=    0 NMtDT0=    0
 Petite list used in FoFCou.
 Keep R1 ints in memory in canonical form, NReq=47891130.
 Requested convergence on RMS density matrix=1.00D-08 within 128 cycles.
 Requested convergence on MAX density matrix=1.00D-06.
 Requested convergence on             energy=1.00D-06.
 No special actions if energy rises.
 Inv3:  Mode=1 IEnd=     3709632.
 Iteration    1 A*A^-1 deviation from unit magnitude is 2.89D-15 for   1088.
 Iteration    1 A*A^-1 deviation from orthogonality  is 2.12D-15 for   1075    217.
 Iteration    1 A^-1*A deviation from unit magnitude is 2.89D-15 for   1088.
 Iteration    1 A^-1*A deviation from orthogonality  is 1.35D-15 for    918    366.
 Error on total polarization charges =  0.02275
 SCF Done:  E(RB3LYP) =  -269.095005901     A.U. after   12 cycles
            NFock= 12  Conv=0.41D-08     -V/T= 2.0096
 PrsmSu:  requested number of processors reduced to:  30 ShMem   1 Linda.
 D1PCM: PCM CHGder 1st derivatives, ID1Alg=3 FixD1E=F DoIter=F DoCFld=F I1PDM=0.
 CoulSu:  requested number of processors reduced to:  29 ShMem   1 Linda.
 CoulSu:  requested number of processors reduced to:  30 ShMem   1 Linda.
 Calling FoFJK, ICntrl=      2127 FMM=F ISym2X=0 I1Cent= 0 IOpClX= 0 NMat=1 NMatS=1 NMatT=0.
 ***** Axes restored to original set *****
 -------------------------------------------------------------------
 Center     Atomic                   Forces (Hartrees/Bohr)
 Number     Number              X              Y              Z
 -------------------------------------------------------------------
      1        6           0.004597728    0.000995547   -0.009784292
      2        1          -0.001186350    0.002570810   -0.001197370
      3        1           0.001479521   -0.000527231    0.000027372
      4        1          -0.001157137    0.003985699    0.001577961
      5        6          -0.000330652   -0.027899847    0.054351035
      6        6          -0.001100784    0.016055958   -0.017002488
      7        1           0.002223074   -0.000564780   -0.002062852
      8        1          -0.007219440    0.003675495    0.000540757
      9        1           0.001453163    0.004917261    0.015472887
     10        8          -0.010826512   -0.002659466   -0.031014646
     11        8           0.007300278   -0.008550785   -0.008570695
     12        1           0.004767112    0.008001340   -0.002337669
 -------------------------------------------------------------------
 Cartesian Forces:  Max     0.054351035 RMS     0.013069838

 GradGradGradGradGradGradGradGradGradGradGradGradGradGradGradGradGradGrad
 Berny optimization.
 FormGI is forming the generalized inverse of G from B-inverse, IUseBI=4.
 Internal  Forces:  Max     0.025187018 RMS     0.008340188
 Search for a saddle point.
 Step number   2 out of a maximum of  100
 All quantities printed in internal units (Hartrees-Bohrs-Radians)
 Swapping is turned off.
 Update second derivatives using D2CorX and points    1    2
 ITU=  0  0
     Eigenvalues ---   -0.03201  -0.00184  -0.00007   0.00625   0.01981
     Eigenvalues ---    0.03033   0.03464   0.04599   0.05421   0.05739
     Eigenvalues ---    0.06149   0.07509   0.08725   0.09428   0.10834
     Eigenvalues ---    0.12919   0.13333   0.14310   0.18493   0.20778
     Eigenvalues ---    0.21522   0.28199   0.31144   0.32560   0.33298
     Eigenvalues ---    0.33819   0.34675   0.35343   0.44766   0.84993
 Eigenvectors required to have negative eigenvalues:
                          R10       R9        A16       D10       D7
   1                   -0.69962   0.53803   0.24896  -0.18007  -0.16831
                          A12       R5        A11       D8        A10
   1                   -0.16522  -0.14962   0.09077   0.08732   0.08021
 RFO step:  Lambda0=4.079680245D-05 Lambda=-1.77630530D-02.
 Linear search not attempted -- option 19 set.
 Iteration  1 RMS(Cart)=  0.13519391 RMS(Int)=  0.04463776
 Iteration  2 RMS(Cart)=  0.05038489 RMS(Int)=  0.00274476
 Iteration  3 RMS(Cart)=  0.00211801 RMS(Int)=  0.00199351
 Iteration  4 RMS(Cart)=  0.00000377 RMS(Int)=  0.00199351
 Iteration  5 RMS(Cart)=  0.00000001 RMS(Int)=  0.00199351
 Variable       Old X    -DE/DX   Delta X   Delta X   Delta X     New X
                                 (Linear)    (Quad)   (Total)
    R1        2.06382   0.00027   0.00000   0.00348   0.00348   2.06730
    R2        2.07404  -0.00135   0.00000   0.00084   0.00084   2.07488
    R3        2.07408  -0.00007   0.00000  -0.00352  -0.00352   2.07056
    R4        2.85637   0.00474   0.00000   0.01902   0.01902   2.87539
    R5        2.77095  -0.00823   0.00000  -0.04516  -0.04516   2.72579
    R6        2.34107   0.02271   0.00000   0.02462   0.02462   2.36569
    R7        2.07051  -0.00204   0.00000  -0.00368  -0.00368   2.06684
    R8        2.07657  -0.00534   0.00000  -0.01022  -0.01022   2.06634
    R9        2.46234   0.00893   0.00000   0.04547   0.04548   2.50782
   R10        2.52117   0.01352   0.00000  -0.00000  -0.00000   2.52117
   R11        1.84948  -0.00416   0.00000  -0.01061  -0.01061   1.83887
    A1        1.91663  -0.00109   0.00000  -0.02583  -0.02566   1.89097
    A2        1.92829  -0.00428   0.00000  -0.00951  -0.01034   1.91795
    A3        1.93995   0.00328   0.00000   0.03219   0.03183   1.97178
    A4        1.88199  -0.00148   0.00000  -0.00650  -0.00635   1.87564
    A5        1.90662  -0.00264   0.00000  -0.02041  -0.02024   1.88637
    A6        1.88917   0.00614   0.00000   0.02944   0.02904   1.91821
    A7        2.07433  -0.00913   0.00000  -0.01389  -0.01710   2.05723
    A8        2.12397  -0.01483   0.00000  -0.05624  -0.05953   2.06445
    A9        2.07329   0.02519   0.00000   0.09125   0.08813   2.16142
   A10        2.01896   0.00053   0.00000  -0.01293  -0.01535   2.00361
   A11        2.03768  -0.00758   0.00000  -0.04493  -0.04669   1.99100
   A12        1.64887   0.01863   0.00000   0.13066   0.13066   1.77953
   A13        2.00952   0.00119   0.00000  -0.01222  -0.01398   1.99555
   A14        1.81495  -0.00684   0.00000  -0.02681  -0.02702   1.78794
   A15        1.87037  -0.00282   0.00000   0.00217   0.00328   1.87365
   A16        1.58853   0.01598   0.00000   0.18316   0.18316   1.77169
   A17        3.17682  -0.00024   0.00000  -0.02119  -0.02138   3.15544
   A18        2.98101   0.00786   0.00000   0.07997   0.08009   3.06110
    D1        0.15716  -0.00592   0.00000   0.20288   0.20577   0.36292
    D2        3.13372   0.00517   0.00000   0.36074   0.35708  -2.79239
    D3       -1.96050  -0.00493   0.00000   0.22803   0.23131  -1.72919
    D4        1.01606   0.00617   0.00000   0.38589   0.38262   1.39869
    D5        2.27782  -0.00516   0.00000   0.23046   0.23412   2.51193
    D6       -1.02880   0.00594   0.00000   0.38832   0.38543  -0.64338
    D7        0.48358   0.00503   0.00000   0.04526   0.04770   0.53127
    D8        2.93349  -0.00248   0.00000  -0.05523  -0.05090   2.88258
    D9       -1.39890   0.00279   0.00000   0.00944   0.01198  -1.38692
   D10       -2.49784  -0.00202   0.00000  -0.09417  -0.09794  -2.59578
   D11       -0.04793  -0.00953   0.00000  -0.19466  -0.19654  -0.24446
   D12        1.90287  -0.00426   0.00000  -0.12999  -0.13365   1.76922
   D13       -1.85520   0.00218   0.00000   0.09262   0.09282  -1.76238
   D14        2.37126  -0.00213   0.00000   0.07650   0.07533   2.44659
   D15        0.26392  -0.00019   0.00000   0.08706   0.08804   0.35196
         Item               Value     Threshold  Converged?
 Maximum Force            0.025187     0.000450     NO 
 RMS     Force            0.008340     0.000300     NO 
 Maximum Displacement     0.545059     0.001800     NO 
 RMS     Displacement     0.159862     0.001200     NO 
 Predicted change in Energy=-1.109911D-02
 GradGradGradGradGradGradGradGradGradGradGradGradGradGradGradGradGradGrad

                          Input orientation:                          
 ---------------------------------------------------------------------
 Center     Atomic      Atomic             Coordinates (Angstroms)
 Number     Number       Type             X           Y           Z
 ---------------------------------------------------------------------
      1          6           0       -1.428976    1.202285    0.014629
      2          1           0       -0.763287    1.955874    0.445583
      3          1           0       -2.341317    1.158114    0.623927
      4          1           0       -1.723706    1.500400   -0.997700
      5          6           0       -0.812259   -0.188431   -0.013754
      6          6           0        0.283037   -0.458822    0.885031
      7          1           0        0.256580    0.103612    1.822686
      8          1           0        0.510964   -1.521695    1.003395
      9          1           0        1.305686    0.096630    0.247221
     10          8           0       -1.292228   -1.034199   -0.802099
     11          8           0        2.359373    0.693300   -0.312840
     12          1           0        2.811253   -0.061281   -0.729151
 ---------------------------------------------------------------------
                    Distance matrix (angstroms):
                    1          2          3          4          5
     1  C    0.000000
     2  H    1.093966   0.000000
     3  H    1.097981   1.777191   0.000000
     4  H    1.095695   1.792464   1.768694   0.000000
     5  C    1.521590   2.193498   2.134910   2.156626   0.000000
     6  C    2.539265   2.668083   3.093525   3.377906   1.442428
     7  H    2.705042   2.523374   3.049273   3.718485   2.144812
     8  H    3.487276   3.745445   3.932032   4.258073   2.136142
     9  H    2.958876   2.788689   3.816973   3.563371   2.152918
    10  O    2.384870   3.282839   2.817867   2.578493   1.251871
    11  O    3.836391   3.452580   4.815608   4.218054   3.305473
    12  H    4.486575   4.269222   5.465046   4.803834   3.695646
                    6          7          8          9         10
     6  C    0.000000
     7  H    1.093723   0.000000
     8  H    1.093461   1.837817   0.000000
     9  H    1.327079   1.892819   1.955085   0.000000
    10  O    2.378850   3.253140   2.597877   3.021424   0.000000
    11  O    2.659596   3.054496   3.171008   1.334144   4.069130
    12  H    3.025805   3.614612   3.228909   1.801380   4.217873
                   11         12
    11  O    0.000000
    12  H    0.973089   0.000000
 Stoichiometry    C3H7O2(1-)
 Framework group  C1[X(C3H7O2)]
 Deg. of freedom    30
 Full point group                 C1      NOp   1
 Largest Abelian subgroup         C1      NOp   1
 Largest concise Abelian subgroup C1      NOp   1
                         Standard orientation:                         
 ---------------------------------------------------------------------
 Center     Atomic      Atomic             Coordinates (Angstroms)
 Number     Number       Type             X           Y           Z
 ---------------------------------------------------------------------
      1          6           0       -1.229034    1.244378   -0.012522
      2          1           0       -0.473382    1.957455    0.329928
      3          1           0       -2.116254    1.347768    0.626002
      4          1           0       -1.531698    1.485501   -1.037609
      5          6           0       -0.759032   -0.200859    0.062490
      6          6           0        0.337716   -0.508181    0.947528
      7          1           0        0.405959    0.130866    1.832510
      8          1           0        0.460526   -1.575355    1.151773
      9          1           0        1.385613   -0.118934    0.232310
     10          8           0       -1.353649   -1.054880   -0.633398
     11          8           0        2.471650    0.314439   -0.410071
     12          1           0        2.827331   -0.515802   -0.772138
 ---------------------------------------------------------------------
 Rotational constants (GHZ):           6.4447166           2.5494045           2.2651308
 Standard basis: 6-31+G(d) (6D, 7F)
 There are   109 symmetry adapted cartesian basis functions of A   symmetry.
 There are   109 symmetry adapted basis functions of A   symmetry.
   109 basis functions,   188 primitive gaussians,   109 cartesian basis functions
    21 alpha electrons       21 beta electrons
       nuclear repulsion energy       168.8868245712 Hartrees.
 NAtoms=   12 NActive=   12 NUniq=   12 SFac= 1.00D+00 NAtFMM=   60 NAOKFM=F Big=F
 Integral buffers will be    131072 words long.
 Raffenetti 2 integral format.
 Two-electron integral symmetry is turned on.
 Nuclear repulsion after empirical dispersion term =      168.8745353520 Hartrees.
 ------------------------------------------------------------------------------
 Polarizable Continuum Model (PCM)
 =================================
 Model                : PCM.
 Atomic radii         : UFF (Universal Force Field).
 Polarization charges : Total charges.
 Charge compensation  : None.
 Solution method      : Matrix inversion.
 Cavity type          : Scaled VdW (van der Waals Surface) (Alpha=1.100).
 Cavity algorithm     : GePol (No added spheres)
                        Default sphere list used, NSphG=   12.
                        Lebedev-Laikov grids with approx.  5.0 points / Ang**2.
                        Smoothing algorithm: York/Karplus (Gamma=1.0000).
                        Polarization charges: spherical gaussians, with
                                              point-specific exponents (IZeta= 3).
                        Self-potential: point-specific (ISelfS= 7).
                        Self-field    : sphere-specific E.n sum rule (ISelfD= 2).
 1st derivatives      : Analytical E(r).r(x)/FMM algorithm (CHGder, D1EAlg=3).
                        Cavity 1st derivative terms included.
 Solvent              : Water, Eps=  78.355300 Eps(inf)=   1.777849
 ------------------------------------------------------------------------------
 Spheres list:
 ISph  on   Nord     Re0    Alpha      Xe            Ye            Ze
    1   C      1    1.9255  1.100     -1.229034      1.244378     -0.012522
    2   H      2    1.4430  1.100     -0.473382      1.957455      0.329928
    3   H      3    1.4430  1.100     -2.116254      1.347768      0.626002
    4   H      4    1.4430  1.100     -1.531698      1.485501     -1.037609
    5   C      5    1.9255  1.100     -0.759032     -0.200859      0.062490
    6   C      6    1.9255  1.100      0.337716     -0.508181      0.947528
    7   H      7    1.4430  1.100      0.405959      0.130866      1.832510
    8   H      8    1.4430  1.100      0.460526     -1.575355      1.151773
    9   H      9    1.4430  1.100      1.385613     -0.118934      0.232310
   10   O     10    1.7500  1.100     -1.353649     -1.054880     -0.633398
   11   O     11    1.7500  1.100      2.471650      0.314439     -0.410071
   12   H     12    1.4430  1.100      2.827331     -0.515802     -0.772138
 ------------------------------------------------------------------------------
 One-electron integrals computed using PRISM.
 PrsmSu:  requested number of processors reduced to:  30 ShMem   1 Linda.
 NBasis=   109 RedAO= T EigKep=  1.29D-04  NBF=   109
 NBsUse=   109 1.00D-06 EigRej= -1.00D+00 NBFU=   109
 Initial guess from the checkpoint file:  "OHTS1.chk"
 B after Tr=    -0.000000   -0.000000   -0.000000
         Rot=    0.999053    0.042326    0.000702   -0.010052 Ang=   4.99 deg.
 ExpMin= 4.38D-02 ExpMax= 5.48D+03 ExpMxC= 8.25D+02 IAcc=3 IRadAn=         5 AccDes= 0.00D+00
 Harris functional with IExCor=  402 and IRadAn=       5 diagonalized for initial guess.
 HarFok:  IExCor=  402 AccDes= 0.00D+00 IRadAn=         5 IDoV= 1 UseB2=F ITyADJ=14
 ICtDFT=  3500011 ScaDFX=  1.000000  1.000000  1.000000  1.000000
 FoFCou: FMM=F IPFlag=           0 FMFlag=      100000 FMFlg1=           0
         NFxFlg=           0 DoJE=T BraDBF=F KetDBF=T FulRan=T
         wScrn=  0.000000 ICntrl=       500 IOpCl=  0 I1Cent=   200000004 NGrid=           0
         NMat0=    1 NMatS0=      1 NMatT0=    0 NMatD0=    1 NMtDS0=    0 NMtDT0=    0
 Petite list used in FoFCou.
 Keep R1 ints in memory in canonical form, NReq=47891130.
 Requested convergence on RMS density matrix=1.00D-08 within 128 cycles.
 Requested convergence on MAX density matrix=1.00D-06.
 Requested convergence on             energy=1.00D-06.
 No special actions if energy rises.
 Inv3:  Mode=1 IEnd=     3898800.
 Iteration    1 A*A^-1 deviation from unit magnitude is 2.89D-15 for    631.
 Iteration    1 A*A^-1 deviation from orthogonality  is 2.24D-15 for    925    384.
 Iteration    1 A^-1*A deviation from unit magnitude is 2.89D-15 for   1140.
 Iteration    1 A^-1*A deviation from orthogonality  is 1.65D-15 for   1093    270.
 Error on total polarization charges =  0.02265
 SCF Done:  E(RB3LYP) =  -269.105653838     A.U. after   12 cycles
            NFock= 12  Conv=0.73D-08     -V/T= 2.0098
 PrsmSu:  requested number of processors reduced to:  30 ShMem   1 Linda.
 D1PCM: PCM CHGder 1st derivatives, ID1Alg=3 FixD1E=F DoIter=F DoCFld=F I1PDM=0.
 CoulSu:  requested number of processors reduced to:  29 ShMem   1 Linda.
 CoulSu:  requested number of processors reduced to:  30 ShMem   1 Linda.
 Calling FoFJK, ICntrl=      2127 FMM=F ISym2X=0 I1Cent= 0 IOpClX= 0 NMat=1 NMatS=1 NMatT=0.
 ***** Axes restored to original set *****
 -------------------------------------------------------------------
 Center     Atomic                   Forces (Hartrees/Bohr)
 Number     Number              X              Y              Z
 -------------------------------------------------------------------
      1        6          -0.000015978    0.000702538   -0.002353877
      2        1           0.000028226   -0.000000765    0.000215694
      3        1          -0.000002046    0.000710097    0.000421658
      4        1           0.000326874    0.000737384    0.000479272
      5        6          -0.007066717   -0.005716651    0.010313501
      6        6           0.002497943    0.004197678   -0.007186204
      7        1           0.000639372   -0.000296233    0.000241158
      8        1          -0.000855423    0.000114889    0.001872031
      9        1          -0.000194282   -0.000049395    0.004263728
     10        8           0.001726895    0.000077968   -0.005948530
     11        8           0.001653272   -0.001964568   -0.001696252
     12        1           0.001261864    0.001487058   -0.000622180
 -------------------------------------------------------------------
 Cartesian Forces:  Max     0.010313501 RMS     0.003105509

 GradGradGradGradGradGradGradGradGradGradGradGradGradGradGradGradGradGrad
 Berny optimization.
 FormGI is forming the generalized inverse of G from B-inverse, IUseBI=4.
 Internal  Forces:  Max     0.005601739 RMS     0.001672991
 Search for a saddle point.
 Step number   3 out of a maximum of  100
 All quantities printed in internal units (Hartrees-Bohrs-Radians)
 Swapping is turned off.
 Update second derivatives using D2CorX and points    2    3
 ITU=  0  0  0
     Eigenvalues ---   -0.03187  -0.00013   0.00032   0.00617   0.01996
     Eigenvalues ---    0.03008   0.03470   0.04585   0.05415   0.05741
     Eigenvalues ---    0.06139   0.07443   0.08589   0.09280   0.10810
     Eigenvalues ---    0.12909   0.13326   0.14272   0.18412   0.20748
     Eigenvalues ---    0.21488   0.27997   0.31136   0.32524   0.33295
     Eigenvalues ---    0.33775   0.34522   0.35333   0.44766   0.84976
 Eigenvectors required to have negative eigenvalues:
                          R10       R9        A16       D10       A12
   1                   -0.69784   0.53691   0.24446  -0.17198  -0.16859
                          D7        R5        A11       A10       D8
   1                   -0.16101  -0.15028   0.10094   0.09159   0.08625
 RFO step:  Lambda0=9.424424004D-05 Lambda=-2.02788743D-03.
 Linear search not attempted -- option 19 set.
 Iteration  1 RMS(Cart)=  0.14521388 RMS(Int)=  0.08244283
 Iteration  2 RMS(Cart)=  0.04903302 RMS(Int)=  0.02958820
 Iteration  3 RMS(Cart)=  0.02566068 RMS(Int)=  0.00163834
 Iteration  4 RMS(Cart)=  0.00135523 RMS(Int)=  0.00038037
 Iteration  5 RMS(Cart)=  0.00000270 RMS(Int)=  0.00038037
 Iteration  6 RMS(Cart)=  0.00000000 RMS(Int)=  0.00038037
 Variable       Old X    -DE/DX   Delta X   Delta X   Delta X     New X
                                 (Linear)    (Quad)   (Total)
    R1        2.06730   0.00009   0.00000   0.00137   0.00137   2.06867
    R2        2.07488   0.00021   0.00000   0.00005   0.00005   2.07493
    R3        2.07056  -0.00033   0.00000  -0.00016  -0.00016   2.07040
    R4        2.87539   0.00179   0.00000   0.00671   0.00670   2.88209
    R5        2.72579   0.00119   0.00000  -0.01279  -0.01279   2.71301
    R6        2.36569   0.00303   0.00000   0.00343   0.00343   2.36913
    R7        2.06684   0.00005   0.00000   0.00151   0.00151   2.06834
    R8        2.06634  -0.00009   0.00000   0.00094   0.00094   2.06728
    R9        2.50782   0.00096   0.00000  -0.00198  -0.00198   2.50584
   R10        2.52117   0.00306   0.00000  -0.00353  -0.00353   2.51764
   R11        1.83887  -0.00030   0.00000   0.00034   0.00034   1.83921
    A1        1.89097  -0.00056   0.00000  -0.00456  -0.00455   1.88642
    A2        1.91795  -0.00048   0.00000  -0.00922  -0.00926   1.90869
    A3        1.97178  -0.00063   0.00000  -0.00573  -0.00574   1.96604
    A4        1.87564  -0.00024   0.00000   0.00081   0.00073   1.87636
    A5        1.88637   0.00088   0.00000   0.01836   0.01833   1.90470
    A6        1.91821   0.00104   0.00000   0.00106   0.00101   1.91922
    A7        2.05723  -0.00180   0.00000   0.00406   0.00319   2.06043
    A8        2.06445  -0.00006   0.00000  -0.00339  -0.00426   2.06018
    A9        2.16142   0.00189   0.00000   0.00029  -0.00059   2.16083
   A10        2.00361  -0.00041   0.00000  -0.00387  -0.00499   1.99862
   A11        1.99100  -0.00079   0.00000  -0.00840  -0.00819   1.98280
   A12        1.77953   0.00560   0.00000   0.05902   0.05872   1.83824
   A13        1.99555  -0.00068   0.00000  -0.01949  -0.01955   1.97600
   A14        1.78794  -0.00154   0.00000   0.01489   0.01442   1.80236
   A15        1.87365  -0.00156   0.00000  -0.03150  -0.03137   1.84228
   A16        1.77169   0.00372   0.00000   0.05866   0.05866   1.83036
   A17        3.15544   0.00039   0.00000   0.02321   0.02301   3.17846
   A18        3.06110   0.00170   0.00000   0.02763   0.02750   3.08860
    D1        0.36292  -0.00142   0.00000  -0.21987  -0.21984   0.14309
    D2       -2.79239   0.00117   0.00000  -0.14497  -0.14503  -2.93741
    D3       -1.72919  -0.00092   0.00000  -0.22304  -0.22296  -1.95215
    D4        1.39869   0.00167   0.00000  -0.14814  -0.14815   1.25054
    D5        2.51193  -0.00171   0.00000  -0.23511  -0.23508   2.27685
    D6       -0.64338   0.00088   0.00000  -0.16021  -0.16027  -0.80365
    D7        0.53127   0.00161   0.00000  -0.04497  -0.04496   0.48632
    D8        2.88258  -0.00075   0.00000  -0.08850  -0.08844   2.79414
    D9       -1.38692   0.00039   0.00000  -0.09438  -0.09436  -1.48129
   D10       -2.59578  -0.00112   0.00000  -0.12435  -0.12440  -2.72017
   D11       -0.24446  -0.00348   0.00000  -0.16788  -0.16788  -0.41235
   D12        1.76922  -0.00234   0.00000  -0.17377  -0.17381   1.59541
   D13       -1.76238   0.00013   0.00000   0.52018   0.52136  -1.24102
   D14        2.44659  -0.00099   0.00000   0.49236   0.49139   2.93799
   D15        0.35196   0.00100   0.00000   0.51974   0.51954   0.87150
         Item               Value     Threshold  Converged?
 Maximum Force            0.005602     0.000450     NO 
 RMS     Force            0.001673     0.000300     NO 
 Maximum Displacement     0.517097     0.001800     NO 
 RMS     Displacement     0.171295     0.001200     NO 
 Predicted change in Energy=-1.454095D-03
 GradGradGradGradGradGradGradGradGradGradGradGradGradGradGradGradGradGrad

                          Input orientation:                          
 ---------------------------------------------------------------------
 Center     Atomic      Atomic             Coordinates (Angstroms)
 Number     Number       Type             X           Y           Z
 ---------------------------------------------------------------------
      1          6           0       -1.472495    1.189752    0.035291
      2          1           0       -0.939640    1.916075    0.657278
      3          1           0       -2.489879    1.081228    0.433749
      4          1           0       -1.557999    1.579025   -0.985257
      5          6           0       -0.794712   -0.176374    0.016417
      6          6           0        0.301235   -0.398855    0.916709
      7          1           0        0.265431    0.199716    1.832355
      8          1           0        0.508858   -1.456992    1.101058
      9          1           0        1.371199    0.069310    0.288730
     10          8           0       -1.183458   -1.015484   -0.830047
     11          8           0        2.482538    0.538701   -0.276569
     12          1           0        2.674042   -0.080319   -1.002787
 ---------------------------------------------------------------------
                    Distance matrix (angstroms):
                    1          2          3          4          5
     1  C    0.000000
     2  H    1.094691   0.000000
     3  H    1.098006   1.774874   0.000000
     4  H    1.095610   1.787147   1.769118   0.000000
     5  C    1.525138   2.193182   2.151586   2.160413   0.000000
     6  C    2.539033   2.639313   3.195969   3.314549   1.435661
     7  H    2.688866   2.403932   3.213238   3.628543   2.136112
     8  H    3.473741   3.697657   3.985008   4.223980   2.125023
     9  H    3.066956   2.980997   3.994112   3.533056   2.196744
    10  O    2.386508   3.296305   2.774909   2.625995   1.253688
    11  O    4.020375   3.805329   5.052110   4.232074   3.367126
    12  H    4.459199   4.449730   5.484424   4.545756   3.616663
                    6          7          8          9         10
     6  C    0.000000
     7  H    1.094520   0.000000
     8  H    1.093959   1.827220   0.000000
     9  H    1.326031   1.903288   1.932125   0.000000
    10  O    2.373963   3.265635   2.605384   2.992443   0.000000
    11  O    2.657255   3.078641   3.126669   1.332278   4.020119
    12  H    3.068573   3.730663   3.318043   1.840599   3.972993
                   11         12
    11  O    0.000000
    12  H    0.973268   0.000000
 Stoichiometry    C3H7O2(1-)
 Framework group  C1[X(C3H7O2)]
 Deg. of freedom    30
 Full point group                 C1      NOp   1
 Largest Abelian subgroup         C1      NOp   1
 Largest concise Abelian subgroup C1      NOp   1
                         Standard orientation:                         
 ---------------------------------------------------------------------
 Center     Atomic      Atomic             Coordinates (Angstroms)
 Number     Number       Type             X           Y           Z
 ---------------------------------------------------------------------
      1          6           0       -1.392173    1.154108   -0.162636
      2          1           0       -0.816218    1.976544    0.273510
      3          1           0       -2.400631    1.176665    0.271092
      4          1           0       -1.493832    1.314118   -1.241720
      5          6           0       -0.763505   -0.209490    0.104617
      6          6           0        0.349866   -0.274175    1.008688
      7          1           0        0.361877    0.510955    1.771185
      8          1           0        0.525602   -1.273996    1.416391
      9          1           0        1.416727    0.001627    0.271058
     10          8           0       -1.206024   -1.196793   -0.528740
     11          8           0        2.526798    0.290641   -0.406568
     12          1           0        2.675155   -0.479355   -0.983063
 ---------------------------------------------------------------------
 Rotational constants (GHZ):           6.4886347           2.4820247           2.2334386
 Standard basis: 6-31+G(d) (6D, 7F)
 There are   109 symmetry adapted cartesian basis functions of A   symmetry.
 There are   109 symmetry adapted basis functions of A   symmetry.
   109 basis functions,   188 primitive gaussians,   109 cartesian basis functions
    21 alpha electrons       21 beta electrons
       nuclear repulsion energy       168.4054305797 Hartrees.
 NAtoms=   12 NActive=   12 NUniq=   12 SFac= 1.00D+00 NAtFMM=   60 NAOKFM=F Big=F
 Integral buffers will be    131072 words long.
 Raffenetti 2 integral format.
 Two-electron integral symmetry is turned on.
 Nuclear repulsion after empirical dispersion term =      168.3932511641 Hartrees.
 ------------------------------------------------------------------------------
 Polarizable Continuum Model (PCM)
 =================================
 Model                : PCM.
 Atomic radii         : UFF (Universal Force Field).
 Polarization charges : Total charges.
 Charge compensation  : None.
 Solution method      : Matrix inversion.
 Cavity type          : Scaled VdW (van der Waals Surface) (Alpha=1.100).
 Cavity algorithm     : GePol (No added spheres)
                        Default sphere list used, NSphG=   12.
                        Lebedev-Laikov grids with approx.  5.0 points / Ang**2.
                        Smoothing algorithm: York/Karplus (Gamma=1.0000).
                        Polarization charges: spherical gaussians, with
                                              point-specific exponents (IZeta= 3).
                        Self-potential: point-specific (ISelfS= 7).
                        Self-field    : sphere-specific E.n sum rule (ISelfD= 2).
 1st derivatives      : Analytical E(r).r(x)/FMM algorithm (CHGder, D1EAlg=3).
                        Cavity 1st derivative terms included.
 Solvent              : Water, Eps=  78.355300 Eps(inf)=   1.777849
 ------------------------------------------------------------------------------
 Spheres list:
 ISph  on   Nord     Re0    Alpha      Xe            Ye            Ze
    1   C      1    1.9255  1.100     -1.392173      1.154108     -0.162636
    2   H      2    1.4430  1.100     -0.816218      1.976544      0.273510
    3   H      3    1.4430  1.100     -2.400631      1.176665      0.271092
    4   H      4    1.4430  1.100     -1.493832      1.314118     -1.241720
    5   C      5    1.9255  1.100     -0.763505     -0.209490      0.104617
    6   C      6    1.9255  1.100      0.349866     -0.274175      1.008688
    7   H      7    1.4430  1.100      0.361877      0.510955      1.771185
    8   H      8    1.4430  1.100      0.525602     -1.273996      1.416391
    9   H      9    1.4430  1.100      1.416727      0.001627      0.271058
   10   O     10    1.7500  1.100     -1.206024     -1.196793     -0.528740
   11   O     11    1.7500  1.100      2.526798      0.290641     -0.406568
   12   H     12    1.4430  1.100      2.675155     -0.479355     -0.983063
 ------------------------------------------------------------------------------
 One-electron integrals computed using PRISM.
 PrsmSu:  requested number of processors reduced to:  30 ShMem   1 Linda.
 NBasis=   109 RedAO= T EigKep=  1.31D-04  NBF=   109
 NBsUse=   109 1.00D-06 EigRej= -1.00D+00 NBFU=   109
 Initial guess from the checkpoint file:  "OHTS1.chk"
 B after Tr=    -0.000000   -0.000000   -0.000000
         Rot=    0.997135    0.070204    0.007480   -0.027140 Ang=   8.68 deg.
 ExpMin= 4.38D-02 ExpMax= 5.48D+03 ExpMxC= 8.25D+02 IAcc=3 IRadAn=         5 AccDes= 0.00D+00
 Harris functional with IExCor=  402 and IRadAn=       5 diagonalized for initial guess.
 HarFok:  IExCor=  402 AccDes= 0.00D+00 IRadAn=         5 IDoV= 1 UseB2=F ITyADJ=14
 ICtDFT=  3500011 ScaDFX=  1.000000  1.000000  1.000000  1.000000
 FoFCou: FMM=F IPFlag=           0 FMFlag=      100000 FMFlg1=           0
         NFxFlg=           0 DoJE=T BraDBF=F KetDBF=T FulRan=T
         wScrn=  0.000000 ICntrl=       500 IOpCl=  0 I1Cent=   200000004 NGrid=           0
         NMat0=    1 NMatS0=      1 NMatT0=    0 NMatD0=    1 NMtDS0=    0 NMtDT0=    0
 Petite list used in FoFCou.
 Keep R1 ints in memory in canonical form, NReq=47891130.
 Requested convergence on RMS density matrix=1.00D-08 within 128 cycles.
 Requested convergence on MAX density matrix=1.00D-06.
 Requested convergence on             energy=1.00D-06.
 No special actions if energy rises.
 Inv3:  Mode=1 IEnd=     3878307.
 Iteration    1 A*A^-1 deviation from unit magnitude is 5.00D-15 for   1113.
 Iteration    1 A*A^-1 deviation from orthogonality  is 1.64D-15 for    998    952.
 Iteration    1 A^-1*A deviation from unit magnitude is 5.00D-15 for   1113.
 Iteration    1 A^-1*A deviation from orthogonality  is 3.50D-15 for   1117    167.
 Error on total polarization charges =  0.02275
 SCF Done:  E(RB3LYP) =  -269.106711546     A.U. after   13 cycles
            NFock= 13  Conv=0.39D-08     -V/T= 2.0098
 PrsmSu:  requested number of processors reduced to:  30 ShMem   1 Linda.
 D1PCM: PCM CHGder 1st derivatives, ID1Alg=3 FixD1E=F DoIter=F DoCFld=F I1PDM=0.
 CoulSu:  requested number of processors reduced to:  29 ShMem   1 Linda.
 CoulSu:  requested number of processors reduced to:  30 ShMem   1 Linda.
 Calling FoFJK, ICntrl=      2127 FMM=F ISym2X=0 I1Cent= 0 IOpClX= 0 NMat=1 NMatS=1 NMatT=0.
 ***** Axes restored to original set *****
 -------------------------------------------------------------------
 Center     Atomic                   Forces (Hartrees/Bohr)
 Number     Number              X              Y              Z
 -------------------------------------------------------------------
      1        6           0.000638346    0.001012797    0.000386066
      2        1           0.000037247   -0.000078719   -0.000415095
      3        1           0.000063143   -0.000393453   -0.000273876
      4        1          -0.000239856    0.000090510   -0.000098190
      5        6          -0.004769199    0.000135744   -0.001737295
      6        6           0.003032960    0.000483792    0.002490047
[...]
    D2       -2.80663   0.00000   0.00000  -0.00007  -0.00007  -2.80669
    D3       -1.81875   0.00000   0.00000  -0.00009  -0.00009  -1.81884
    D4        1.38790   0.00000   0.00000  -0.00007  -0.00007   1.38783
    D5        2.40943  -0.00000   0.00000  -0.00010  -0.00010   2.40933
    D6       -0.66711   0.00000   0.00000  -0.00008  -0.00008  -0.66719
    D7        0.48993   0.00000   0.00000   0.00006   0.00006   0.48999
    D8        2.79630  -0.00000   0.00000   0.00005   0.00005   2.79636
    D9       -1.47843   0.00000   0.00000   0.00007   0.00007  -1.47836
   D10       -2.72085   0.00000   0.00000   0.00004   0.00004  -2.72081
   D11       -0.41447  -0.00000   0.00000   0.00003   0.00003  -0.41444
   D12        1.59398   0.00000   0.00000   0.00005   0.00005   1.59403
   D13       -1.15752  -0.00000   0.00000  -0.00150  -0.00150  -1.15902
   D14        3.01647   0.00000   0.00000  -0.00146  -0.00146   3.01500
   D15        0.96525  -0.00000   0.00000  -0.00149  -0.00149   0.96377
         Item               Value     Threshold  Converged?
 Maximum Force            0.000006     0.000450     YES
 RMS     Force            0.000002     0.000300     YES
 Maximum Displacement     0.001198     0.001800     YES
 RMS     Displacement     0.000311     0.001200     YES
 Predicted change in Energy=-3.130093D-09
 Optimization completed.
    -- Stationary point found.
                           ----------------------------
                           !   Optimized Parameters   !
                           ! (Angstroms and Degrees)  !
 --------------------------                            --------------------------
 ! Name  Definition              Value          Derivative Info.                !
 --------------------------------------------------------------------------------
 ! R1    R(1,2)                  1.0944         -DE/DX =    0.0                 !
 ! R2    R(1,3)                  1.0984         -DE/DX =    0.0                 !
 ! R3    R(1,4)                  1.0953         -DE/DX =    0.0                 !
 ! R4    R(1,5)                  1.5258         -DE/DX =    0.0                 !
 ! R5    R(5,6)                  1.442          -DE/DX =    0.0                 !
 ! R6    R(5,10)                 1.2546         -DE/DX =    0.0                 !
 ! R7    R(6,7)                  1.0946         -DE/DX =    0.0                 !
 ! R8    R(6,8)                  1.0945         -DE/DX =    0.0                 !
 ! R9    R(6,9)                  1.3406         -DE/DX =    0.0                 !
 ! R10   R(9,11)                 1.318          -DE/DX =    0.0                 !
 ! R11   R(11,12)                0.9725         -DE/DX =    0.0                 !
 ! A1    A(2,1,3)              107.9888         -DE/DX =    0.0                 !
 ! A2    A(2,1,4)              109.5577         -DE/DX =    0.0                 !
 ! A3    A(2,1,5)              112.4973         -DE/DX =    0.0                 !
 ! A4    A(3,1,4)              107.5468         -DE/DX =    0.0                 !
 ! A5    A(3,1,5)              108.8908         -DE/DX =    0.0                 !
 ! A6    A(4,1,5)              110.2088         -DE/DX =    0.0                 !
 ! A7    A(1,5,6)              117.6747         -DE/DX =    0.0                 !
 ! A8    A(1,5,10)             118.1899         -DE/DX =    0.0                 !
 ! A9    A(6,5,10)             124.0212         -DE/DX =    0.0                 !
 ! A10   A(5,6,7)              114.6886         -DE/DX =    0.0                 !
 ! A11   A(5,6,8)              114.0018         -DE/DX =    0.0                 !
 ! A12   A(5,6,9)              105.8644         -DE/DX =    0.0                 !
 ! A13   A(7,6,8)              112.7719         -DE/DX =    0.0                 !
 ! A14   A(7,6,9)              102.9558         -DE/DX =    0.0                 !
 ! A15   A(8,6,9)              105.1431         -DE/DX =    0.0                 !
 ! A16   A(9,11,12)            104.605          -DE/DX =    0.0                 !
 ! A17   L(6,9,11,1,-1)        182.4161         -DE/DX =    0.0                 !
 ! A18   L(6,9,11,1,-2)        176.4325         -DE/DX =    0.0                 !
 ! D1    D(2,1,5,6)             15.4649         -DE/DX =    0.0                 !
 ! D2    D(2,1,5,10)          -160.8078         -DE/DX =    0.0                 !
 ! D3    D(3,1,5,6)           -104.2064         -DE/DX =    0.0                 !
 ! D4    D(3,1,5,10)            79.5208         -DE/DX =    0.0                 !
 ! D5    D(4,1,5,6)            138.05           -DE/DX =    0.0                 !
 ! D6    D(4,1,5,10)           -38.2227         -DE/DX =    0.0                 !
 ! D7    D(1,5,6,7)             28.0708         -DE/DX =    0.0                 !
 ! D8    D(1,5,6,8)            160.2165         -DE/DX =    0.0                 !
 ! D9    D(1,5,6,9)            -84.7076         -DE/DX =    0.0                 !
 ! D10   D(10,5,6,7)          -155.8932         -DE/DX =    0.0                 !
 ! D11   D(10,5,6,8)           -23.7475         -DE/DX =    0.0                 !
 ! D12   D(10,5,6,9)            91.3284         -DE/DX =    0.0                 !
 ! D13   D(5,6,11,12)          -66.3208         -DE/DX =    0.0                 !
 ! D14   D(7,6,11,12)          172.8308         -DE/DX =    0.0                 !
 ! D15   D(8,6,11,12)           55.305          -DE/DX =    0.0                 !
 --------------------------------------------------------------------------------
 GradGradGradGradGradGradGradGradGradGradGradGradGradGradGradGradGradGrad


 ----------------------------------------------------------------------

 Electric dipole moment (input orientation):
 (Debye = 10**-18 statcoulomb cm , SI units = C m)
                  (au)            (Debye)         (10**-30 SI)
   Tot        0.223925D+01      0.569159D+01      0.189851D+02
   x         -0.211408D+01     -0.537346D+01     -0.179239D+02
   y          0.432336D+00      0.109889D+01      0.366550D+01
   z          0.598299D+00      0.152072D+01      0.507259D+01

 Dipole polarizability, Alpha (input orientation).
 (esu units = cm**3 , SI units = C**2 m**2 J**-1)
 Alpha(0;0):
               (au)            (10**-24 esu)      (10**-40 SI)
   iso        0.817095D+02      0.121081D+02      0.134721D+02
   aniso      0.367755D+02      0.544957D+01      0.606346D+01
   xx         0.103276D+03      0.153039D+02      0.170279D+02
   yx         0.791520D+01      0.117291D+01      0.130504D+01
   yy         0.721272D+02      0.106882D+02      0.118922D+02
   zx         0.554219D+01      0.821267D+00      0.913783D+00
   zy         0.267774D+01      0.396800D+00      0.441499D+00
   zz         0.697253D+02      0.103322D+02      0.114962D+02

 ----------------------------------------------------------------------

 Dipole orientation:
     6         -0.69268479          1.66756191          3.03946406
     1          0.63709945          3.17539747          2.55444831
     1         -0.33179687          1.10187936          5.00366238
     1         -2.62853774          2.39405338          2.94493714
     6         -0.41121840         -0.64174442          1.33621019
     6          1.85589973         -0.84012576         -0.16263793
     1          3.51252360          0.09631932          0.64833514
     1          2.26315066         -2.75761965         -0.82243812
     1          1.41611747          0.50369574         -2.26481485
     8         -2.21497826         -2.17605706          1.22254926
     8          1.14347956          1.82315180         -4.35954308
     1         -0.17863947          0.94866947         -5.28924899

 Electric dipole moment (dipole orientation):
 (Debye = 10**-18 statcoulomb cm , SI units = C m)
                  (au)            (Debye)         (10**-30 SI)
   Tot        0.223925D+01      0.569159D+01      0.189851D+02
   x          0.000000D+00      0.000000D+00      0.000000D+00
   y          0.000000D+00      0.000000D+00      0.000000D+00
   z          0.223925D+01      0.569159D+01      0.189851D+02

 Dipole polarizability, Alpha (dipole orientation).
 (esu units = cm**3 , SI units = C**2 m**2 J**-1)
 Alpha(0;0):
               (au)            (10**-24 esu)      (10**-40 SI)
   iso        0.817095D+02      0.121081D+02      0.134721D+02
   aniso      0.367755D+02      0.544957D+01      0.606346D+01
   xx         0.772332D+02      0.114448D+02      0.127340D+02
   yx         0.702381D+01      0.104082D+01      0.115807D+01
   yy         0.735810D+02      0.109036D+02      0.121319D+02
   zx        -0.138597D+02     -0.205380D+01     -0.228516D+01
   zy        -0.932157D+01     -0.138131D+01     -0.153692D+01
   zz         0.943143D+02      0.139759D+02      0.155503D+02

 ----------------------------------------------------------------------
 Unable to Open any file for archive entry.
 1\1\GINC-DUCKTER-ASUS\Freq\RB3LYP\6-31+G(d)\C3H7O2(1-)\DUCKTER\28-Jun-
 2024\0\\#N Geom=AllCheck Guess=TCheck SCRF=Check GenChk RB3LYP/6-31+G(
 d) Freq\\fzgsdfgsfdg\\-1,1\C,-1.5002984961,1.1142901366,-0.0866894879\
 H,-0.9344901426,1.9403998739,0.3550380779\H,-2.4680256716,1.0519016419
 ,0.4291224853\H,-1.7016169431,1.3304083066,-1.141429516\C,-0.780962057
 ,-0.2243887962,0.0490488035\C,0.3085986248,-0.3068423743,0.9900449974\
 H,0.2347378358,0.3830848569,1.8366793127\H,0.5561945068,-1.3280985281,
 1.2961274029\H,1.3921088927,0.1351037138,0.3358067368\O,-1.1240813014,
 -1.1613430507,-0.7114179289\O,2.4962774941,0.578019561,-0.2313838492\H
 ,2.6866763877,-0.0667512314,-0.9340182646\\Version=ES64L-G16RevC.01\St
 ate=1-A\HF=-269.1067846\RMSD=4.070e-09\RMSF=7.497e-06\ZeroPoint=0.0897
 745\Thermal=0.0970737\ETot=-269.009711\HTot=-269.0087668\GTot=-269.048
 7665\Dipole=-2.114082,0.4323361,0.5982989\DipoleDeriv=-0.0666943,0.352
 9103,-0.0039977,0.2245947,-0.2728276,-0.012114,-0.0183248,0.0285902,0.
 1177776,0.0115674,-0.1260763,-0.0721992,-0.0202223,-0.0928606,-0.06335
 27,-0.0669077,-0.0812479,0.0432562,-0.1112698,0.0125964,0.084392,-0.00
 92129,0.0457065,0.0286214,0.087609,0.0125779,0.0497751,0.0881392,0.012
 0411,-0.0364468,0.066703,0.0363765,0.0173061,-0.0996234,0.0662979,-0.1
 509583,1.5237446,0.1337042,0.7842493,0.2613811,1.4925133,0.5787679,1.5
 874139,0.739365,1.0413832,-2.1836733,-0.5957325,-0.2134668,-0.3535561,
 -0.0980326,0.1273742,0.0996279,0.1060679,-0.4173087,0.2726082,0.121038
 2,0.050596,0.1331078,-0.0235587,-0.1249195,-0.1456824,-0.1491332,-0.12
 91127,0.2312753,0.0796707,-0.0383202,0.1331438,-0.1927507,0.0881109,-0
 .1649345,0.0267492,0.0043024,2.2822502,0.6241006,-0.5246398,0.7379816,
 0.4012416,-0.1439906,-1.1909251,-0.3704575,0.3872967,-1.0062092,-0.214
 1442,-0.3102559,-0.7046529,-1.5056734,-0.6056707,-0.8791025,-0.6406877
 ,-1.1415231,-2.3046427,-0.3434887,0.2616813,-0.4682015,-0.9347497,0.33
 7781,0.6755035,0.4217754,-0.9860512,0.2629043,-0.0566197,0.0184078,-0.
 0010662,0.1446155,-0.227914,0.115346,-0.1598971,0.1811629\Polar=103.27
 59496,7.9151969,72.127231,5.5421872,2.6777373,69.7253175\Quadrupole=-9
 .2049158,2.574281,6.6306348,-9.2466049,-2.9989815,-0.8582851\PG=C01 [X
 (C3H7O2)]\NImag=1\\0.51906068,0.05127351,0.49739916,0.02328548,0.02171
 797,0.56681428,-0.12006453,-0.10664321,-0.05919015,0.12895941,-0.10364
 439,-0.19962779,-0.07769369,0.11449945,0.21436474,-0.05896618,-0.08064
 255,-0.09384805,0.06459958,0.08883445,0.09612567,-0.24839144,-0.015835
 12,0.11113735,-0.01395607,-0.00059143,0.00787488,0.26867265,-0.0115520
 8,-0.04506654,0.00481492,-0.02140711,-0.00087827,0.01291990,0.01523083
 ,0.04762059,0.10850561,0.00747702,-0.10106704,-0.01254096,0.00015545,0
 .00683044,-0.12022847,-0.00884232,0.10766762,-0.05141827,0.00714326,-0
 .04763467,-0.00302013,0.00479822,-0.01584696,0.00640980,-0.00572105,0.
 02869125,0.05467538,0.00610221,-0.05910407,0.04800342,-0.00260700,0.00
 629478,-0.02376899,0.00015278,-0.00086122,0.00197642,-0.01121643,0.059
 33220,-0.04680346,0.04964026,-0.29603357,-0.00105219,0.00231259,-0.009
 80682,-0.00288478,0.00265321,-0.01411509,0.05108574,-0.05349335,0.3204
 2096,-0.11258556,0.04541427,-0.01539043,0.00992162,-0.02124861,0.00348
 325,-0.01475575,0.02687468,-0.00429568,-0.00616546,0.00434892,-0.00130
 432,0.43118108,0.03521742,-0.14174948,0.01838370,0.01110387,-0.0132730
 4,0.00202136,-0.00174014,0.00254281,0.00002653,0.00471192,-0.00566048,
 -0.00241089,-0.00327161,0.61690178,-0.01107751,0.02105186,-0.09003007,
 0.00764807,-0.01328871,-0.00136856,0.00715746,-0.01690233,0.00127503,-
 0.01823452,0.02986125,-0.00347921,0.19513887,0.17018536,0.51234757,-0.
 00665244,0.00781939,-0.01239360,-0.00081227,0.00171330,-0.00052554,-0.
 00023454,-0.00019445,-0.00067719,-0.00024648,0.00257457,-0.00034638,-0
 .15011896,0.04528184,-0.06106151,0.28657757,0.02374276,-0.00255305,0.0
 1444069,0.00021181,0.00154465,0.00086469,0.00250112,-0.00166895,0.0005
 8223,0.00281762,-0.00308954,0.00134697,0.03647509,-0.09528505,0.019857
 95,-0.09777501,0.57034430,-0.00969778,0.00068242,0.00636681,-0.0003711
 3,-0.00068967,-0.00040356,-0.00094860,0.00186498,-0.00031519,0.0004378
 7,-0.00191418,0.00067179,-0.11350247,0.01469089,-0.17030428,0.14923320
 ,0.05958573,0.49828784,-0.00100194,0.00003831,0.00164720,-0.00030344,0
 .00002168,-0.00049027,-0.00022917,0.00023189,-0.00011162,0.00039356,-0
 .00069293,0.00047314,-0.00258963,-0.02209060,-0.02327557,-0.02652382,0
 .02899277,0.01384841,0.03799209,-0.00014785,-0.00046394,0.00164535,0.0
 0051785,-0.00002899,0.00049807,-0.00023088,-0.00013787,-0.00015279,0.0
 0016853,0.00019681,0.00009267,-0.00417580,-0.00303031,0.00072200,0.022
 12146,-0.15251013,-0.13015248,-0.01961309,0.16367060,-0.00064933,-0.00
 051788,0.00093555,-0.00001974,0.00105171,0.00001291,-0.00014080,0.0003
 7828,-0.00008828,0.00036602,0.00010746,0.00026105,0.01450494,-0.012186
 99,-0.00986657,-0.00114848,-0.13351080,-0.20845902,-0.00699832,0.14540
 063,0.21936596,-0.00146234,-0.00026846,-0.00581810,0.00045656,-0.00041
 382,0.00025289,0.00013814,-0.00014361,0.00037317,-0.00121880,0.0011828
 1,-0.00041123,-0.01172502,0.02609614,-0.01230847,-0.03828798,0.0485732
 5,-0.02204532,-0.00304471,0.00094449,0.00049627,0.05134868,0.00098712,
 0.00122910,0.00052788,-0.00021517,0.00056458,-0.00002231,0.00042600,-0
 .00025290,0.00015143,0.00043902,-0.00016933,0.00019218,-0.00379756,-0.
 00469652,-0.00388996,0.06367224,-0.28354511,0.06729843,0.00215870,-0.0
 1446794,0.00688351,-0.06477127,0.30308967,-0.00447646,-0.00152735,0.00
 109388,0.00032632,-0.00001034,0.00014538,-0.00086169,0.00107098,-0.000
 51670,-0.00003285,0.00021070,-0.00005898,0.00290501,0.02297889,-0.0009
 5665,-0.03047644,0.06826916,-0.07065390,0.00605873,-0.02163637,0.00864
 785,0.02709486,-0.07387791,0.06660825,0.00371704,-0.00014673,-0.002140
 35,-0.00001462,-0.00038400,0.00001344,0.00136134,-0.00121342,0.0009313
 9,-0.00005325,-0.00087917,0.00078051,-0.05176189,-0.01529032,-0.032208
 86,0.02844770,0.01140917,-0.00592578,-0.00538903,-0.00359195,0.0019361
 5,0.00099390,0.00256758,-0.00125602,-0.01657239,0.00095951,-0.00062594
 ,0.00022153,-0.00000918,-0.00038281,-0.00009877,0.00015582,-0.00013870
 ,0.00039497,-0.00007004,-0.00066133,0.00036833,-0.01468920,-0.00592162
 ,-0.01755501,0.02729658,-0.03261030,-0.00144408,0.00833447,0.00182099,
 -0.00579020,-0.01567117,-0.00582172,0.00909896,-0.02982936,0.05798200,
 -0.00029080,0.00146328,-0.00080890,-0.00017910,0.00055499,-0.00011592,
 -0.00023234,-0.00016088,-0.00036245,-0.00008274,0.00099772,-0.00051971
 ,0.01218917,0.00088031,0.03074755,-0.04231453,-0.00665443,-0.03264864,
 0.01594761,0.00632690,-0.00904149,0.00610982,0.00122526,-0.00356170,0.
 04187539,0.02529267,0.04472391,0.01974291,0.01080114,0.00656320,-0.001
 13747,0.00480130,-0.00038678,0.00160889,-0.00256283,-0.00019110,0.0007
 3419,0.00008533,0.00114517,-0.11620954,-0.08635230,-0.08377786,-0.0151
 7828,-0.03374376,-0.03572520,-0.00216357,0.00168218,-0.00793776,0.0017
 7912,-0.00010137,0.00069195,0.01359593,0.00437673,-0.00717121,0.105002
 46,-0.00249015,-0.04977206,-0.03180008,0.00458615,-0.00883813,-0.00065
 594,0.00012739,-0.00129952,-0.00153370,-0.00303344,0.00326820,-0.00041
 648,-0.07500729,-0.35304962,-0.20284712,-0.03929683,-0.00276760,-0.020
 01528,0.00359448,0.00454884,-0.00296858,0.00162381,0.00329587,-0.00312
 486,0.01992352,0.00798172,-0.01194917,0.10354799,0.40174835,-0.0002089
 8,-0.01883712,0.00628267,0.00072812,-0.00084093,0.00245341,-0.00115800
 ,0.00238425,0.00044990,0.00114005,-0.00135352,0.00223567,-0.08072900,-
 0.21159499,-0.24906585,-0.04999049,-0.03871680,-0.01943816,-0.00307003
 ,-0.00081802,-0.00350714,0.00757148,0.00118430,-0.00127709,0.02080706,
 0.00789713,-0.01632202,0.12169700,0.26671191,0.26739707,-0.00104158,0.
 00042680,-0.00004817,-0.00004880,0.00039446,-0.00000402,-0.00060896,0.
 00041226,-0.00045574,-0.00007207,0.00090935,-0.00063232,0.02398788,0.0
 0617322,0.02989596,-0.07277899,-0.01965774,0.02538357,0.00165523,0.001
 92726,0.00027546,0.00144625,-0.00115380,-0.00015710,0.02420247,0.00547
 134,-0.03557439,-0.00716294,-0.01250076,-0.01537928,0.06069725,-0.0004
 5330,0.00037437,-0.00033314,-0.00002911,0.00021644,0.00004394,-0.00016
 633,0.00010309,-0.00023257,-0.00004068,0.00043280,-0.00028534,0.008733
 26,0.00305267,0.01241850,-0.03183674,0.00267147,0.01019503,-0.00127638
 ,0.00044905,0.00141017,0.00283081,0.00073372,-0.00147239,0.01706010,-0
 .02648974,-0.02234511,-0.00211161,-0.00450275,-0.00555126,-0.04253494,
 0.24855033,0.00038053,-0.00048385,0.00021405,0.00005918,-0.00034640,-0
 .00001344,0.00028250,-0.00016588,0.00025451,0.00009873,-0.00059790,0.0
 0039853,-0.01221499,-0.00300344,-0.01794559,0.04678184,0.01227211,-0.0
 0397376,-0.00328567,-0.00170056,0.00142729,-0.00143883,0.00007268,0.00
 070367,-0.02340632,-0.01136039,-0.00682216,0.00474508,0.00800380,0.009
 91965,-0.07865157,0.23718729,0.27402354,0.00009746,-0.00002315,-0.0000
 1778,0.00001973,0.00005383,-0.00000427,-0.00001490,0.00004489,-0.00000
 066,-0.00001847,0.00003955,-0.00004987,0.00082124,0.00016056,0.0021039
 4,-0.00419150,-0.00354708,-0.00068676,0.00120442,0.00039781,-0.0006844
 2,-0.00042379,-0.00021151,0.00018369,0.00147279,0.01367450,0.00972311,
 -0.00061169,-0.00107487,-0.00140793,-0.03027573,0.04982492,0.06664952,
 0.03192044,0.00000524,-0.00003977,0.00007144,-0.00000835,0.00004383,0.
 00000615,-0.00003005,0.00003749,-0.00000267,0.00000305,0.00002118,-0.0
 0000016,0.00034385,0.00016886,0.00038623,-0.00137635,-0.00053069,-0.00
 010179,0.00030069,-0.00004711,-0.00025731,0.00001703,0.00004059,0.0000
 2053,0.00037459,0.00486746,0.00436848,-0.00042280,-0.00061330,-0.00046
 494,0.06013255,-0.22559144,-0.23987747,-0.05933945,0.22164289,-0.00000
 111,-0.00002406,0.00008039,-0.00000801,-0.00003944,-0.00001144,0.00000
 249,-0.00001511,-0.00001274,0.00001209,-0.00002903,0.00002538,-0.00078
 435,0.00002927,-0.00135337,0.00291912,0.00166250,0.00087007,-0.0007436
 3,-0.00022540,0.00031187,0.00012346,0.00025453,-0.00017400,-0.00140662
 ,-0.00702515,-0.00526847,0.00034751,0.00059550,0.00087191,0.07534760,-
 0.23103512,-0.25818629,-0.07580855,0.23585150,0.26284670\\0.00000433,0
 .00000236,-0.00000177,0.00000477,0.00000444,-0.00001230,0.00000237,0.0
 0000911,0.00000005,0.00000015,-0.00000761,-0.00000435,0.00000040,0.000
 00019,0.00000534,-0.00000928,0.00000736,0.00000017,0.00000716,0.000014
 06,-0.00000109,-0.00000137,0.00000840,0.00001262,0.00000376,-0.0000028
 2,-0.00000306,-0.00000584,-0.00000576,0.00001629,0.00000107,-0.0000097
 8,-0.00000597,-0.00000751,-0.00001995,-0.00000593\\\@
 The archive entry for this job was punched.


 SOME PHYSICISTS WOULD PREFER TO COME BACK TO THE IDEA OF AN OBJECTIVE
 REAL WORLD WHOSE SMALLEST PARTS EXIST OBJECTIVELY IN THE SAME SENSE AS
 STONES OR TREES EXIST INDEPENDENTLY OF WHETHER WE OBSERVE THEM.
 THIS, HOWEVER, IS IMPOSSIBLE.  -- WERNER HEISENBERG
 Job cpu time:       0 days  0 hours  9 minutes 52.0 seconds.
 Elapsed time:       0 days  0 hours  0 minutes 19.1 seconds.
 File lengths (MBytes):  RWF=     56 Int=      0 D2E=      0 Chk=      9 Scr=      1
 Normal termination of Gaussian 16 at Fri Jun 28 00:15:47 2024.
