 Entering Gaussian System, Link 0=g16
 Input=/home/duckter/Documents/KET_DFT_demo/SCAN.gjf
 Output=/home/duckter/Documents/KET_DFT_demo/SCAN.log
 Initial command:
 /home/duckter/g16/l1.exe "/home/duckter/g16/scratch/Gau-44496.inp" -scrdir="/home/duckter/g16/scratch/"
 Entering Link 1 = /home/duckter/g16/l1.exe PID=     44499.
  
 Copyright (c) 1988-2019, Gaussian, Inc.  All Rights Reserved.
  
 This is part of the Gaussian(R) 16 program.  It is based on
 the Gaussian(R) 09 system (copyright 2009, Gaussian, Inc.),
 the Gaussian(R) 03 system (copyright 2003, Gaussian, Inc.),
 the Gaussian(R) 98 system (copyright 1998, Gaussian, Inc.),
 the Gaussian(R) 94 system (copyright 1995, Gaussian, Inc.),
 the Gaussian 92(TM) system (copyright 1992, Gaussian, Inc.),
 the Gaussian 90(TM) system (copyright 1990, Gaussian, Inc.),
 the Gaussian 88(TM) system (copyright 1988, Gaussian, Inc.),
 the Gaussian 86(TM) system (copyright 1986, Carnegie Mellon
 University), and the Gaussian 82(TM) system (copyright 1983,
 Carnegie Mellon University). Gaussian is a federally registered
 trademark of Gaussian, Inc.
  
 This software contains proprietary and confidential information,
 including trade secrets, belonging to Gaussian, Inc.
  
 This software is provided under written license and may be
 used, copied, transmitted, or stored only in accord with that
 written license.
  
 The following legend is applicable only to US Government
 contracts under FAR:
  
                    RESTRICTED RIGHTS LEGEND
  
 Use, reproduction and disclosure by the US Government is
 subject to restrictions as set forth in subparagraphs (a)
 and (c) of the Commercial Computer Software - Restricted
 Rights clause in FAR 52.227-19.
  
 Gaussian, Inc.
 340 Quinnipiac St., Bldg. 40, Wallingford CT 06492
  
  
 ---------------------------------------------------------------
 Warning -- This program may not be used in any manner that
 competes with the business of Gaussian, Inc. or will provide
 assistance to any competitor of Gaussian, Inc.  The licensee
 of this program is prohibited from giving any competitor of
 Gaussian, Inc. access to this program.  By using this program,
 the user acknowledges that Gaussian, Inc. is engaged in the
 business of creating and licensing software in the field of
 computational chemistry and represents and warrants to the
 licensee that it is not a competitor of Gaussian, Inc. and that
 it will not use this program in any manner prohibited above.
 ---------------------------------------------------------------
  

 Cite this work as:
 Gaussian 16, Revision C.01,
 M. J. Frisch, G. W. Trucks, H. B. Schlegel, G. E. Scuseria, 
 M. A. Robb, J. R. Cheeseman, G. Scalmani, V. Barone, 
 G. A. Petersson, H. Nakatsuji, X. Li, M. Caricato, A. V. Marenich, 
 J. Bloino, B. G. Janesko, R. Gomperts, B. Mennucci, H. P. Hratchian, 
 J. V. Ortiz, A. F. Izmaylov, J. L. Sonnenberg, D. Williams-Young, 
 F. Ding, F. Lipparini, F. Egidi, J. Goings, B. Peng, A. Petrone, 
 T. Henderson, D. Ranasinghe, V. G. Zakrzewski, J. Gao, N. Rega, 
 G. Zheng, W. Liang, M. Hada, M. Ehara, K. Toyota, R. Fukuda, 
 J. Hasegawa, M. Ishida, T. Nakajima, Y. Honda, O. Kitao, H. Nakai, 
 T. Vreven, K. Throssell, J. A. Montgomery, Jr., J. E. Peralta, 
 F. Ogliaro, M. J. Bearpark, J. J. Heyd, E. N. Brothers, K. N. Kudin, 
 V. N. Staroverov, T. A. Keith, R. Kobayashi, J. Normand, 
 K. Raghavachari, A. P. Rendell, J. C. Burant, S. S. Iyengar, 
 J. Tomasi, M. Cossi, J. M. Millam, M. Klene, C. Adamo, R. Cammi, 
 J. W. Ochterski, R. L. Martin, K. Morokuma, O. Farkas, 
 J. B. Foresman, and D. J. Fox, Gaussian, Inc., Wallingford CT, 2019.
 
 ******************************************
 Gaussian 16:  ES64L-G16RevC.01  3-Jul-2019
                27-Jun-2024 
 ******************************************
 %nprocshared=32
 Will use up to   32 processors via shared memory.
 %chk=SCAN.chk
 ----------------------------------------------------------------------
 # opt=modredundant b3lyp/6-31+g(d) scrf nosymm empiricaldispersion=gd3
 bj
 ----------------------------------------------------------------------
 1/18=120,19=15,26=3,38=1/1,3;
 2/9=110,12=2,15=1,17=6,18=5,40=1/2;
 3/5=1,6=6,7=11,11=2,25=1,30=1,70=2201,71=1,74=-5,124=41/1,2,3;
 4//1;
 5/5=2,38=5/2;
 6/7=2,8=2,9=2,10=2,28=1/1;
 7/30=1/1,2,3,16;
 1/18=20,19=15,26=3/3(2);
 2/9=110,15=1/2;
 99//99;
 2/9=110,15=1/2;
 3/5=1,6=6,7=11,11=2,25=1,30=1,70=2205,71=1,74=-5,124=41/1,2,3;
 4/5=5,16=3,69=1/1;
 5/5=2,38=5/2;
 7/30=1/1,2,3,16;
 1/18=20,19=15,26=3/3(-5);
 2/9=110,15=1/2;
 6/7=2,8=2,9=2,10=2,19=2,28=1/1;
 99/9=1/99;
 --------
 gfhdfhdg
 --------
 Symbolic Z-matrix:
 Charge =  1 Multiplicity = 1
 C                     1.5861    1.28803   0.01765 
 H                     2.05371   1.38584   1.00744 
 H                     0.93261   2.1449   -0.16628 
 H                     2.40079   1.26079  -0.71682 
 C                     0.80912  -0.00021  -0.02293 
 C                     1.59108  -1.28533   0.02291 
 H                     2.16026  -1.38495  -0.91191 
 H                     2.32424  -1.25194   0.83851 
 H                     0.92516  -2.14426   0.14072 
 O                    -0.4212   -0.00262  -0.09254 
 O                    -2.89731   0.00059   0.1264 
 H                    -2.28694   0.77207  -0.01085 
 H                    -2.28329  -0.77145   0.00844 
 H                    -3.59616  -0.00968  -0.56586 
 
 Add virtual bond connecting atoms H12        and O10        Dist= 3.82D+00.
 Add virtual bond connecting atoms H13        and O10        Dist= 3.81D+00.
 The following ModRedundant input section has been read:
 B      10      12 S  10 -0.010                                                
 

 GradGradGradGradGradGradGradGradGradGradGradGradGradGradGradGradGradGrad
 Berny optimization.
 Initialization pass.
                           ----------------------------
                           !    Initial Parameters    !
                           ! (Angstroms and Degrees)  !
 --------------------------                            --------------------------
 ! Name  Definition              Value          Derivative Info.                !
 --------------------------------------------------------------------------------
 ! R1    R(1,2)                  1.099          estimate D2E/DX2                !
 ! R2    R(1,3)                  1.0932         estimate D2E/DX2                !
 ! R3    R(1,4)                  1.0972         estimate D2E/DX2                !
 ! R4    R(1,5)                  1.505          estimate D2E/DX2                !
 ! R5    R(5,6)                  1.505          estimate D2E/DX2                !
 ! R6    R(5,10)                 1.2323         estimate D2E/DX2                !
 ! R7    R(6,7)                  1.099          estimate D2E/DX2                !
 ! R8    R(6,8)                  1.0972         estimate D2E/DX2                !
 ! R9    R(6,9)                  1.0932         estimate D2E/DX2                !
 ! R10   R(10,12)                2.0218         Scan                            !
 ! R11   R(10,13)                2.0171         estimate D2E/DX2                !
 ! R12   R(11,12)                0.9933         estimate D2E/DX2                !
 ! R13   R(11,13)                0.9935         estimate D2E/DX2                !
 ! R14   R(11,14)                0.9837         estimate D2E/DX2                !
 ! A1    A(2,1,3)              109.6393         estimate D2E/DX2                !
 ! A2    A(2,1,4)              106.8062         estimate D2E/DX2                !
 ! A3    A(2,1,5)              108.67           estimate D2E/DX2                !
 ! A4    A(3,1,4)              110.5299         estimate D2E/DX2                !
 ! A5    A(3,1,5)              110.9642         estimate D2E/DX2                !
 ! A6    A(4,1,5)              110.123          estimate D2E/DX2                !
 ! A7    A(1,5,6)              117.5072         estimate D2E/DX2                !
 ! A8    A(1,5,10)             121.2421         estimate D2E/DX2                !
 ! A9    A(6,5,10)             121.2506         estimate D2E/DX2                !
 ! A10   A(5,6,7)              108.698          estimate D2E/DX2                !
 ! A11   A(5,6,8)              110.1109         estimate D2E/DX2                !
 ! A12   A(5,6,9)              110.9586         estimate D2E/DX2                !
 ! A13   A(7,6,8)              106.797          estimate D2E/DX2                !
 ! A14   A(7,6,9)              109.6291         estimate D2E/DX2                !
 ! A15   A(8,6,9)              110.5393         estimate D2E/DX2                !
 ! A16   A(5,10,12)            156.6769         estimate D2E/DX2                !
 ! A17   A(5,10,13)            156.8673         estimate D2E/DX2                !
 ! A18   A(12,10,13)            44.9391         estimate D2E/DX2                !
 ! A19   A(12,11,13)           101.9691         estimate D2E/DX2                !
 ! A20   A(12,11,14)           110.3301         estimate D2E/DX2                !
 ! A21   A(13,11,14)           110.3291         estimate D2E/DX2                !
 ! A22   A(10,12,11)           105.9646         estimate D2E/DX2                !
 ! A23   A(10,13,11)           106.2783         estimate D2E/DX2                !
 ! D1    D(2,1,5,6)            -67.5891         estimate D2E/DX2                !
 ! D2    D(2,1,5,10)           112.487          estimate D2E/DX2                !
 ! D3    D(3,1,5,6)            171.7884         estimate D2E/DX2                !
 ! D4    D(3,1,5,10)            -8.1355         estimate D2E/DX2                !
 ! D5    D(4,1,5,6)             49.0804         estimate D2E/DX2                !
 ! D6    D(4,1,5,10)          -130.8435         estimate D2E/DX2                !
 ! D7    D(1,5,6,7)            -67.9851         estimate D2E/DX2                !
 ! D8    D(1,5,6,8)             48.6827         estimate D2E/DX2                !
 ! D9    D(1,5,6,9)            171.3905         estimate D2E/DX2                !
 ! D10   D(10,5,6,7)           111.9388         estimate D2E/DX2                !
 ! D11   D(10,5,6,8)          -131.3934         estimate D2E/DX2                !
 ! D12   D(10,5,6,9)            -8.6856         estimate D2E/DX2                !
 ! D13   D(1,5,10,12)          -13.6561         estimate D2E/DX2                !
 ! D14   D(1,5,10,13)         -165.0827         estimate D2E/DX2                !
 ! D15   D(6,5,10,12)          166.4228         estimate D2E/DX2                !
 ! D16   D(6,5,10,13)           14.9962         estimate D2E/DX2                !
 ! D17   D(5,10,12,11)        -158.7146         estimate D2E/DX2                !
 ! D18   D(13,10,12,11)          5.8582         estimate D2E/DX2                !
 ! D19   D(5,10,13,11)         158.5836         estimate D2E/DX2                !
 ! D20   D(12,10,13,11)         -5.8663         estimate D2E/DX2                !
 ! D21   D(13,11,12,10)         -8.6056         estimate D2E/DX2                !
 ! D22   D(14,11,12,10)       -125.8166         estimate D2E/DX2                !
 ! D23   D(12,11,13,10)          8.6397         estimate D2E/DX2                !
 ! D24   D(14,11,13,10)        125.8515         estimate D2E/DX2                !
 --------------------------------------------------------------------------------
 Trust Radius=3.00D-01 FncErr=1.00D-07 GrdErr=1.00D-06 EigMax=2.50D+02 EigMin=1.00D-04
 Number of optimizations in scan=  11
 Number of steps in this run=     71 maximum allowed number of steps=    100.
 GradGradGradGradGradGradGradGradGradGradGradGradGradGradGradGradGradGrad

                          Input orientation:                          
 ---------------------------------------------------------------------
 Center     Atomic      Atomic             Coordinates (Angstroms)
 Number     Number       Type             X           Y           Z
 ---------------------------------------------------------------------
      1          6           0        1.586099    1.288034    0.017645
      2          1           0        2.053706    1.385838    1.007435
      3          1           0        0.932611    2.144900   -0.166277
      4          1           0        2.400793    1.260788   -0.716815
      5          6           0        0.809116   -0.000209   -0.022933
      6          6           0        1.591076   -1.285331    0.022913
      7          1           0        2.160260   -1.384949   -0.911909
      8          1           0        2.324242   -1.251937    0.838509
      9          1           0        0.925156   -2.144265    0.140720
     10          8           0       -0.421203   -0.002624   -0.092540
     11          8           0       -2.897313    0.000589    0.126397
     12          1           0       -2.286936    0.772072   -0.010852
     13          1           0       -2.283290   -0.771454    0.008441
     14          1           0       -3.596160   -0.009680   -0.565855
 ---------------------------------------------------------------------
                    Distance matrix (angstroms):
                    1          2          3          4          5
     1  C    0.000000
     2  H    1.099048   0.000000
     3  H    1.093203   1.791823   0.000000
     4  H    1.097224   1.763277   1.800085   0.000000
     5  C    1.504965   2.128800   2.153437   2.145931   0.000000
     6  C    2.573375   2.884173   3.497979   2.772284   1.505026
     7  H    2.887658   3.372313   3.810895   2.663802   2.129172
     8  H    2.769499   2.656988   3.805881   2.956126   2.145813
     9  H    3.497523   3.806107   4.300144   3.808839   2.153421
    10  O    2.388975   3.043509   2.539706   3.154297   1.232289
    11  O    4.665868   5.216103   4.399096   5.510811   3.709436
    12  H    3.907356   4.500532   3.503469   4.765714   3.190941
    13  H    4.383349   4.945850   4.344844   5.157193   3.187284
    14  H    5.374043   6.028573   5.031068   6.131910   4.438616
                    6          7          8          9         10
     6  C    0.000000
     7  H    1.098993   0.000000
     8  H    1.097198   1.763107   0.000000
     9  H    1.093204   1.791667   1.800167   0.000000
    10  O    2.389128   3.040746   3.156755   2.540417   0.000000
    11  O    4.670111   5.345731   5.416693   4.383135   2.485772
    12  H    4.390105   5.024161   5.106955   4.341144   2.021828
    13  H    3.908323   4.579144   4.706297   3.492311   2.017093
    14  H    5.374137   5.928532   6.210201   5.049554   3.210051
                   11         12         13         14
    11  O    0.000000
    12  H    0.993269   0.000000
    13  H    0.993473   1.543651   0.000000
    14  H    0.983720   1.622724   1.622881   0.000000
 Symmetry turned off by external request.
 Stoichiometry    C3H9O2(1+)
 Framework group  C1[X(C3H9O2)]
 Deg. of freedom    36
 Full point group                 C1      NOp   1
 Rotational constants (GHZ):           8.2715633           1.9833434           1.6396540
 Standard basis: 6-31+G(d) (6D, 7F)
   113 basis functions,   196 primitive gaussians,   113 cartesian basis functions
    21 alpha electrons       21 beta electrons
       nuclear repulsion energy       183.8696750792 Hartrees.
 NAtoms=   14 NActive=   14 NUniq=   14 SFac= 1.00D+00 NAtFMM=   60 NAOKFM=F Big=F
 Integral buffers will be    131072 words long.
 Raffenetti 2 integral format.
 Two-electron integral symmetry is turned off.
 Nuclear repulsion after empirical dispersion term =      183.8566657070 Hartrees.
 ------------------------------------------------------------------------------
 Polarizable Continuum Model (PCM)
 =================================
 Model                : PCM.
 Atomic radii         : UFF (Universal Force Field).
 Polarization charges : Total charges.
 Charge compensation  : None.
 Solution method      : On-the-fly selection.
 Cavity type          : Scaled VdW (van der Waals Surface) (Alpha=1.100).
 Cavity algorithm     : GePol (No added spheres)
                        Default sphere list used, NSphG=   14.
                        Lebedev-Laikov grids with approx.  5.0 points / Ang**2.
                        Smoothing algorithm: York/Karplus (Gamma=1.0000).
                        Polarization charges: spherical gaussians, with
                                              point-specific exponents (IZeta= 3).
                        Self-potential: point-specific (ISelfS= 7).
                        Self-field    : sphere-specific E.n sum rule (ISelfD= 2).
 1st derivatives      : Analytical E(r).r(x)/FMM algorithm (CHGder, D1EAlg=3).
                        Cavity 1st derivative terms included.
 Solvent              : Water, Eps=  78.355300 Eps(inf)=   1.777849
 ------------------------------------------------------------------------------
 Spheres list:
 ISph  on   Nord     Re0    Alpha      Xe            Ye            Ze
    1   C      1    1.9255  1.100      1.586099      1.288034      0.017645
    2   H      2    1.4430  1.100      2.053706      1.385838      1.007435
    3   H      3    1.4430  1.100      0.932611      2.144900     -0.166277
    4   H      4    1.4430  1.100      2.400793      1.260788     -0.716815
    5   C      5    1.9255  1.100      0.809116     -0.000209     -0.022933
    6   C      6    1.9255  1.100      1.591076     -1.285331      0.022913
    7   H      7    1.4430  1.100      2.160260     -1.384949     -0.911909
    8   H      8    1.4430  1.100      2.324242     -1.251937      0.838509
    9   H      9    1.4430  1.100      0.925156     -2.144265      0.140720
   10   O     10    1.7500  1.100     -0.421203     -0.002624     -0.092540
   11   O     11    1.7500  1.100     -2.897313      0.000589      0.126397
   12   H     12    1.4430  1.100     -2.286936      0.772072     -0.010852
   13   H     13    1.4430  1.100     -2.283290     -0.771454      0.008441
   14   H     14    1.4430  1.100     -3.596160     -0.009680     -0.565855
 ------------------------------------------------------------------------------
 One-electron integrals computed using PRISM.
 PrsmSu:  requested number of processors reduced to:  30 ShMem   1 Linda.
 NBasis=   113 RedAO= T EigKep=  1.36D-04  NBF=   113
 NBsUse=   113 1.00D-06 EigRej= -1.00D+00 NBFU=   113
 ExpMin= 4.38D-02 ExpMax= 5.48D+03 ExpMxC= 8.25D+02 IAcc=3 IRadAn=         5 AccDes= 0.00D+00
 Harris functional with IExCor=  402 and IRadAn=       5 diagonalized for initial guess.
 HarFok:  IExCor=  402 AccDes= 0.00D+00 IRadAn=         5 IDoV= 1 UseB2=F ITyADJ=14
 ICtDFT=  3500011 ScaDFX=  1.000000  1.000000  1.000000  1.000000
 FoFCou: FMM=F IPFlag=           0 FMFlag=      100000 FMFlg1=           0
         NFxFlg=           0 DoJE=T BraDBF=F KetDBF=T FulRan=T
         wScrn=  0.000000 ICntrl=       500 IOpCl=  0 I1Cent=   200000004 NGrid=           0
         NMat0=    1 NMatS0=      1 NMatT0=    0 NMatD0=    1 NMtDS0=    0 NMtDT0=    0
 Symmetry not used in FoFCou.
 Requested convergence on RMS density matrix=1.00D-08 within 128 cycles.
 Requested convergence on MAX density matrix=1.00D-06.
 Requested convergence on             energy=1.00D-06.
 No special actions if energy rises.
 Inv3:  Mode=1 IEnd=     4348848.
 Iteration    1 A*A^-1 deviation from unit magnitude is 3.77D-15 for   1195.
 Iteration    1 A*A^-1 deviation from orthogonality  is 1.86D-15 for   1138    621.
 Iteration    1 A^-1*A deviation from unit magnitude is 3.77D-15 for   1195.
 Iteration    1 A^-1*A deviation from orthogonality  is 1.25D-15 for   1173    315.
 Error on total polarization charges =  0.00782
 SCF Done:  E(RB3LYP) =  -270.014495764     A.U. after   11 cycles
            NFock= 11  Conv=0.37D-08     -V/T= 2.0101

 **********************************************************************

            Population analysis using the SCF Density.

 **********************************************************************

 Alpha  occ. eigenvalues --  -19.33677 -19.18517 -10.31543 -10.20228 -10.20227
 Alpha  occ. eigenvalues --   -1.20276  -1.07610  -0.79005  -0.72430  -0.69257
 Alpha  occ. eigenvalues --   -0.66497  -0.56060  -0.50813  -0.47998  -0.47920
 Alpha  occ. eigenvalues --   -0.47620  -0.41633  -0.41134  -0.39407  -0.37935
 Alpha  occ. eigenvalues --   -0.29198
 Alpha virt. eigenvalues --   -0.05114  -0.02668   0.01431   0.02935   0.04918
 Alpha virt. eigenvalues --    0.05123   0.05383   0.06229   0.08248   0.08356
 Alpha virt. eigenvalues --    0.08902   0.09636   0.10427   0.12865   0.14101
 Alpha virt. eigenvalues --    0.14152   0.15314   0.17744   0.19308   0.19558
 Alpha virt. eigenvalues --    0.20069   0.21607   0.23244   0.23992   0.24282
 Alpha virt. eigenvalues --    0.27599   0.29685   0.30064   0.33880   0.35278
 Alpha virt. eigenvalues --    0.36063   0.38852   0.44899   0.59277   0.64074
 Alpha virt. eigenvalues --    0.65463   0.65941   0.66861   0.70516   0.75813
 Alpha virt. eigenvalues --    0.78907   0.81253   0.87624   0.92086   0.93314
 Alpha virt. eigenvalues --    0.95105   0.96169   1.00118   1.00744   1.01547
 Alpha virt. eigenvalues --    1.06992   1.07389   1.10306   1.11250   1.16024
 Alpha virt. eigenvalues --    1.20639   1.23095   1.23708   1.31018   1.38329
 Alpha virt. eigenvalues --    1.40404   1.41888   1.44567   1.53837   1.59049
 Alpha virt. eigenvalues --    1.70256   1.75218   1.76644   1.78265   1.79130
 Alpha virt. eigenvalues --    1.92217   1.92342   1.94265   2.08567   2.12458
 Alpha virt. eigenvalues --    2.15705   2.20308   2.22575   2.37680   2.39976
 Alpha virt. eigenvalues --    2.44371   2.49450   2.50716   2.56544   2.69274
 Alpha virt. eigenvalues --    2.95583   3.06708   3.70091   4.19475   4.25350
 Alpha virt. eigenvalues --    4.29503   4.51698
          Condensed to atoms (all electrons):
               1          2          3          4          5          6
     1  C    6.097113   0.363676   0.376915   0.367697   0.072945  -0.419748
     2  H    0.363676   0.453732  -0.019932  -0.024230  -0.031061  -0.000477
     3  H    0.376915  -0.019932   0.460573  -0.021307  -0.042184   0.012705
     4  H    0.367697  -0.024230  -0.021307   0.462960  -0.047759   0.013324
     5  C    0.072945  -0.031061  -0.042184  -0.047759   4.952082   0.077956
     6  C   -0.419748  -0.000477   0.012705   0.013324   0.077956   6.094770
     7  H   -0.003076   0.000146  -0.000068   0.000294  -0.023282   0.359955
     8  H    0.016731   0.000274   0.000064  -0.000573  -0.056943   0.371993
     9  H    0.012547  -0.000070  -0.000120   0.000066  -0.041975   0.376899
    10  O   -0.129786   0.003375  -0.003189   0.004767   0.510045  -0.131712
    11  O    0.012903   0.000075  -0.000363   0.000022  -0.030457   0.013164
    12  H   -0.011816   0.000010   0.000193   0.000004   0.005896   0.006529
    13  H    0.006761  -0.000006  -0.000003  -0.000004   0.006096  -0.012228
    14  H   -0.000591  -0.000000   0.000002  -0.000000   0.000788  -0.000635
               7          8          9         10         11         12
     1  C   -0.003076   0.016731   0.012547  -0.129786   0.012903  -0.011816
     2  H    0.000146   0.000274  -0.000070   0.003375   0.000075   0.000010
     3  H   -0.000068   0.000064  -0.000120  -0.003189  -0.000363   0.000193
     4  H    0.000294  -0.000573   0.000066   0.004767   0.000022   0.000004
     5  C   -0.023282  -0.056943  -0.041975   0.510045  -0.030457   0.005896
     6  C    0.359955   0.371993   0.376899  -0.131712   0.013164   0.006529
     7  H    0.453753  -0.024241  -0.019816   0.001625   0.000027  -0.000005
     8  H   -0.024241   0.462950  -0.021433   0.006605   0.000055  -0.000005
     9  H   -0.019816  -0.021433   0.460544  -0.003206  -0.000354  -0.000003
    10  O    0.001625   0.006605  -0.003206   8.331690  -0.072292   0.033388
    11  O    0.000027   0.000055  -0.000354  -0.072292   8.286998   0.195137
    12  H   -0.000005  -0.000005  -0.000003   0.033388   0.195137   0.193467
    13  H    0.000007   0.000006   0.000201   0.033800   0.194245  -0.012822
    14  H   -0.000000  -0.000000   0.000002   0.002294   0.211515  -0.007545
              13         14
     1  C    0.006761  -0.000591
     2  H   -0.000006  -0.000000
     3  H   -0.000003   0.000002
     4  H   -0.000004  -0.000000
     5  C    0.006096   0.000788
     6  C   -0.012228  -0.000635
     7  H    0.000007  -0.000000
     8  H    0.000006  -0.000000
     9  H    0.000201   0.000002
    10  O    0.033800   0.002294
    11  O    0.194245   0.211515
    12  H   -0.012822  -0.007545
    13  H    0.193582  -0.007474
    14  H   -0.007474   0.193917
 Mulliken charges:
               1
     1  C   -0.762272
     2  H    0.254489
     3  H    0.236714
     4  H    0.244738
     5  C    0.647852
     6  C   -0.762496
     7  H    0.254679
     8  H    0.244517
     9  H    0.236717
    10  O   -0.587404
    11  O   -0.810673
    12  H    0.597572
    13  H    0.597838
    14  H    0.607728
 Sum of Mulliken charges =   1.00000
 Mulliken charges with hydrogens summed into heavy atoms:
               1
     1  C   -0.026331
     5  C    0.647852
     6  C   -0.026582
    10  O   -0.587404
    11  O    0.992465
 Electronic spatial extent (au):  <R**2>=            709.7294
 Charge=              1.0000 electrons
 Dipole moment (field-independent basis, Debye):
    X=             -7.1406    Y=             -0.0143    Z=             -1.4381  Tot=              7.2840
 Quadrupole moment (field-independent basis, Debye-Ang):
   XX=              7.9718   YY=            -25.8466   ZZ=            -29.7667
   XY=              0.0705   XZ=              5.9855   YZ=              0.0986
 Traceless Quadrupole moment (field-independent basis, Debye-Ang):
   XX=             23.8523   YY=             -9.9661   ZZ=            -13.8862
   XY=              0.0705   XZ=              5.9855   YZ=              0.0986
 Octapole moment (field-independent basis, Debye-Ang**2):
  XXX=           -118.7683  YYY=             -0.0075  ZZZ=             -0.9581  XYY=            -11.1467
  XXY=             -0.3553  XXZ=            -22.4347  XZZ=             -5.7360  YZZ=              0.0235
  YYZ=             -0.2015  XYZ=              0.5427
 Hexadecapole moment (field-independent basis, Debye-Ang**3):
 XXXX=           -232.3659 YYYY=           -195.7888 ZZZZ=            -42.7621 XXXY=              1.0709
 XXXZ=             81.1610 YYYX=              0.0571 YYYZ=             -0.7644 ZZZX=              5.0204
 ZZZY=              1.3332 XXYY=           -116.5004 XXZZ=            -94.7172 YYZZ=            -41.1720
 XXYZ=              0.5469 YYXZ=              0.7034 ZZXY=             -0.0110
 N-N= 1.838566657070D+02 E-N=-9.896981714912D+02  KE= 2.673257468741D+02
 PrsmSu:  requested number of processors reduced to:  30 ShMem   1 Linda.
 D1PCM: PCM CHGder 1st derivatives, ID1Alg=3 FixD1E=F DoIter=F DoCFld=F I1PDM=0.
 CoulSu:  requested number of processors reduced to:  29 ShMem   1 Linda.
 CoulSu:  requested number of processors reduced to:  30 ShMem   1 Linda.
 Calling FoFJK, ICntrl=      2127 FMM=F ISym2X=0 I1Cent= 0 IOpClX= 0 NMat=1 NMatS=1 NMatT=0.
 -------------------------------------------------------------------
 Center     Atomic                   Forces (Hartrees/Bohr)
 Number     Number              X              Y              Z
 -------------------------------------------------------------------
      1        6          -0.000399185   -0.000197892   -0.000039836
      2        1          -0.000348343    0.000356046   -0.000859704
      3        1           0.000794184   -0.000759448    0.000194751
      4        1          -0.000672602    0.000477422    0.000645269
      5        6           0.001234506    0.000005833    0.000042952
      6        6          -0.000389433    0.000209056   -0.000034268
      7        1          -0.000444613   -0.000339797    0.000792273
      8        1          -0.000607169   -0.000510227   -0.000723008
      9        1           0.000805023    0.000752808   -0.000119910
     10        8          -0.000773599    0.000003590    0.000082644
     11        8           0.000431649    0.000007890   -0.000015480
     12        1           0.000038864   -0.000333964   -0.000064380
     13        1           0.000025719    0.000329769   -0.000068473
     14        1           0.000304999   -0.000001088    0.000167170
 -------------------------------------------------------------------
 Cartesian Forces:  Max     0.001234506 RMS     0.000481014

 GradGradGradGradGradGradGradGradGradGradGradGradGradGradGradGradGradGrad
 Berny optimization.
 FormGI is forming the generalized inverse of G from B-inverse, IUseBI=4.
 Internal  Forces:  Max     0.001409086 RMS     0.000442775
 Search for a local minimum.
 Step number   1 out of a maximum of   71 on scan point     1 out of    11
 All quantities printed in internal units (Hartrees-Bohrs-Radians)
 Mixed Optimization -- En-DIIS/RFO-DIIS
 Second derivative matrix not updated -- first step.
 ITU=  0
     Eigenvalues ---    0.00699   0.00700   0.00846   0.01548   0.02768
     Eigenvalues ---    0.03910   0.06444   0.07202   0.07202   0.07538
     Eigenvalues ---    0.07601   0.07604   0.10930   0.11356   0.16000
     Eigenvalues ---    0.16000   0.16000   0.16000   0.16000   0.16000
     Eigenvalues ---    0.19456   0.25000   0.25000   0.31856   0.31862
     Eigenvalues ---    0.33788   0.33794   0.33991   0.33994   0.34445
     Eigenvalues ---    0.34445   0.44880   0.45245   0.50669   0.90139
     Eigenvalues --- 1000.000001000.000001000.000001000.000001000.00000
     Eigenvalues --- 1000.000001000.000001000.000001000.000001000.00000
     Eigenvalues --- 1000.000001000.000001000.000001000.000001000.00000
     Eigenvalues --- 1000.000001000.000001000.000001000.000001000.00000
     Eigenvalues --- 1000.000001000.000001000.000001000.000001000.00000
     Eigenvalues --- 1000.00000
 RFO step:  Lambda=-4.79282401D-05 EMin= 6.99469371D-03
 Linear search not attempted -- first point.
 Iteration  1 RMS(Cart)=  0.00492076 RMS(Int)=  0.00001295
 Iteration  2 RMS(Cart)=  0.00001514 RMS(Int)=  0.00000315
 Iteration  3 RMS(Cart)=  0.00000000 RMS(Int)=  0.00000315
 Iteration  1 RMS(Cart)=  0.00000004 RMS(Int)=  0.00000002
 Variable       Old X    -DE/DX   Delta X   Delta X   Delta X     New X
                                 (Linear)    (Quad)   (Total)
    R1        2.07690  -0.00088   0.00000  -0.00261  -0.00261   2.07429
    R2        2.06585  -0.00110   0.00000  -0.00320  -0.00320   2.06265
    R3        2.07345  -0.00095   0.00000  -0.00280  -0.00280   2.07065
    R4        2.84397  -0.00043   0.00000  -0.00135  -0.00135   2.84263
    R5        2.84409  -0.00043   0.00000  -0.00135  -0.00135   2.84274
    R6        2.32869  -0.00003   0.00000  -0.00003  -0.00003   2.32865
    R7        2.07680  -0.00088   0.00000  -0.00260  -0.00260   2.07420
    R8        2.07340  -0.00095   0.00000  -0.00280  -0.00280   2.07060
    R9        2.06586  -0.00110   0.00000  -0.00318  -0.00318   2.06268
   R10        3.82070  -0.00043   0.00000   0.00000  -0.00000   3.82070
   R11        3.81175  -0.00043   0.00000  -0.00472  -0.00472   3.80703
   R12        1.87701  -0.00036   0.00000  -0.00109  -0.00109   1.87592
   R13        1.87739  -0.00037   0.00000  -0.00050  -0.00050   1.87689
   R14        1.85896  -0.00032   0.00000  -0.00063  -0.00063   1.85833
    A1        1.91357  -0.00037   0.00000  -0.00293  -0.00293   1.91063
    A2        1.86412  -0.00029   0.00000  -0.00063  -0.00064   1.86348
    A3        1.89665   0.00050   0.00000   0.00337   0.00337   1.90001
    A4        1.92911  -0.00038   0.00000  -0.00281  -0.00281   1.92630
    A5        1.93669  -0.00003   0.00000  -0.00076  -0.00076   1.93593
    A6        1.92201   0.00057   0.00000   0.00385   0.00384   1.92585
    A7        2.05089   0.00141   0.00000   0.00564   0.00564   2.05652
    A8        2.11607  -0.00070   0.00000  -0.00278  -0.00278   2.11329
    A9        2.11622  -0.00071   0.00000  -0.00285  -0.00285   2.11337
   A10        1.89714   0.00048   0.00000   0.00326   0.00325   1.90039
   A11        1.92180   0.00059   0.00000   0.00398   0.00397   1.92577
   A12        1.93659  -0.00003   0.00000  -0.00077  -0.00077   1.93582
   A13        1.86396  -0.00029   0.00000  -0.00054  -0.00055   1.86341
   A14        1.91339  -0.00036   0.00000  -0.00287  -0.00287   1.91052
   A15        1.92927  -0.00040   0.00000  -0.00297  -0.00297   1.92630
   A16        2.73453   0.00001   0.00000  -0.00008  -0.00008   2.73445
   A17        2.73785   0.00000   0.00000  -0.00018  -0.00018   2.73767
   A18        0.78434  -0.00001   0.00000   0.00026   0.00026   0.78459
   A19        1.77970   0.00017   0.00000   0.00029   0.00029   1.77999
   A20        1.92562  -0.00012   0.00000  -0.00121  -0.00121   1.92441
   A21        1.92561  -0.00012   0.00000  -0.00127  -0.00127   1.92433
   A22        1.84943  -0.00009   0.00000  -0.00185  -0.00185   1.84758
   A23        1.85491  -0.00009   0.00000   0.00087   0.00087   1.85578
    D1       -1.17965  -0.00015   0.00000  -0.00340  -0.00340  -1.18305
    D2        1.96327  -0.00015   0.00000  -0.00358  -0.00358   1.95969
    D3        2.99827   0.00000   0.00000  -0.00147  -0.00147   2.99680
    D4       -0.14199   0.00000   0.00000  -0.00165  -0.00165  -0.14364
    D5        0.85661   0.00011   0.00000  -0.00004  -0.00004   0.85658
    D6       -2.28365   0.00011   0.00000  -0.00022  -0.00022  -2.28387
    D7       -1.18656  -0.00014   0.00000  -0.00183  -0.00183  -1.18840
    D8        0.84967   0.00013   0.00000   0.00165   0.00166   0.85133
    D9        2.99133   0.00001   0.00000   0.00010   0.00010   2.99143
   D10        1.95370  -0.00014   0.00000  -0.00165  -0.00165   1.95205
   D11       -2.29325   0.00013   0.00000   0.00183   0.00184  -2.29141
   D12       -0.15159   0.00001   0.00000   0.00028   0.00028  -0.15131
   D13       -0.23834   0.00001   0.00000   0.00018   0.00018  -0.23817
   D14       -2.88124  -0.00000   0.00000   0.00012   0.00012  -2.88112
   D15        2.90463   0.00001   0.00000  -0.00001  -0.00001   2.90461
   D16        0.26173  -0.00001   0.00000  -0.00007  -0.00007   0.26166
   D17       -2.77009   0.00002   0.00000   0.00144   0.00144  -2.76865
   D18        0.10225   0.00002   0.00000   0.00143   0.00143   0.10367
   D19        2.76781  -0.00001   0.00000  -0.00143  -0.00143   2.76638
   D20       -0.10239  -0.00003   0.00000  -0.00148  -0.00148  -0.10386
   D21       -0.15020  -0.00005   0.00000  -0.00200  -0.00200  -0.15220
   D22       -2.19591   0.00005   0.00000  -0.00017  -0.00017  -2.19609
   D23        0.15079   0.00005   0.00000   0.00232   0.00232   0.15311
   D24        2.19652  -0.00004   0.00000   0.00053   0.00054   2.19706
         Item               Value     Threshold  Converged?
 Maximum Force            0.001409     0.000450     NO 
 RMS     Force            0.000442     0.000300     NO 
 Maximum Displacement     0.016490     0.001800     NO 
 RMS     Displacement     0.004917     0.001200     NO 
 Predicted change in Energy=-2.398109D-05
 GradGradGradGradGradGradGradGradGradGradGradGradGradGradGradGradGradGrad

                          Input orientation:                          
 ---------------------------------------------------------------------
 Center     Atomic      Atomic             Coordinates (Angstroms)
 Number     Number       Type             X           Y           Z
 ---------------------------------------------------------------------
      1          6           0        1.584582    1.289598    0.017725
      2          1           0        2.049722    1.393435    1.006531
      3          1           0        0.929433    2.142732   -0.167573
      4          1           0        2.399578    1.268497   -0.714388
      5          6           0        0.811492   -0.000148   -0.023042
      6          6           0        1.589345   -1.286936    0.022512
      7          1           0        2.157589   -1.391783   -0.910693
      8          1           0        2.321601   -1.260663    0.837191
      9          1           0        0.921271   -2.142148    0.139597
     10          8           0       -0.418804   -0.002488   -0.092729
     11          8           0       -2.893008    0.000489    0.127367
     12          1           0       -2.284437    0.772450   -0.011045
     13          1           0       -2.278496   -0.770602    0.007970
     14          1           0       -3.591711   -0.010660   -0.564543
 ---------------------------------------------------------------------
                    Distance matrix (angstroms):
                    1          2          3          4          5
     1  C    0.000000
     2  H    1.097668   0.000000
     3  H    1.091509   1.787460   0.000000
     4  H    1.095743   1.760559   1.795722   0.000000
     5  C    1.504252   2.129626   2.150984   2.146960   0.000000
     6  C    2.576543   2.892166   3.497747   2.780240   1.504312
     7  H    2.894840   3.383019   3.814890   2.678467   2.129917
     8  H    2.778229   2.673356   3.811926   2.968186   2.146935
     9  H    3.497387   3.811210   4.295883   3.814077   2.150968
    10  O    2.386471   3.041479   2.534820   3.153591   1.232270
    11  O    4.660755   5.209972   4.391725   5.507073   3.707552
    12  H    3.903534   4.495110   3.497304   4.762431   3.190898
    13  H    4.378115   4.941017   4.336951   5.154037   3.184743
    14  H    5.368772   6.022086   5.023488   6.128151   4.436387
                    6          7          8          9         10
     6  C    0.000000
     7  H    1.097618   0.000000
     8  H    1.095715   1.760452   0.000000
     9  H    1.091522   1.787355   1.795711   0.000000
    10  O    2.386578   3.039244   3.155563   2.535335   0.000000
    11  O    4.664756   5.340834   5.411700   4.374901   2.483976
    12  H    4.387298   5.022436   5.105746   4.335220   2.021827
    13  H    3.902180   4.572598   4.699857   3.483815   2.014595
    14  H    5.368134   5.922987   6.204404   5.040443   3.207805
                   11         12         13         14
    11  O    0.000000
    12  H    0.992694   0.000000
    13  H    0.993208   1.543181   0.000000
    14  H    0.983387   1.621292   1.621671   0.000000
 Symmetry turned off by external request.
 Stoichiometry    C3H9O2(1+)
 Framework group  C1[X(C3H9O2)]
 Deg. of freedom    36
 Full point group                 C1      NOp   1
 Rotational constants (GHZ):           8.2509195           1.9882958           1.6421363
 Standard basis: 6-31+G(d) (6D, 7F)
   113 basis functions,   196 primitive gaussians,   113 cartesian basis functions
    21 alpha electrons       21 beta electrons
       nuclear repulsion energy       183.9657087036 Hartrees.
 NAtoms=   14 NActive=   14 NUniq=   14 SFac= 1.00D+00 NAtFMM=   60 NAOKFM=F Big=F
 Integral buffers will be    131072 words long.
 Raffenetti 2 integral format.
 Two-electron integral symmetry is turned off.
 Nuclear repulsion after empirical dispersion term =      183.9527006265 Hartrees.
 ------------------------------------------------------------------------------
 Polarizable Continuum Model (PCM)
 =================================
 Model                : PCM.
 Atomic radii         : UFF (Universal Force Field).
 Polarization charges : Total charges.
 Charge compensation  : None.
 Solution method      : On-the-fly selection.
 Cavity type          : Scaled VdW (van der Waals Surface) (Alpha=1.100).
 Cavity algorithm     : GePol (No added spheres)
                        Default sphere list used, NSphG=   14.
                        Lebedev-Laikov grids with approx.  5.0 points / Ang**2.
                        Smoothing algorithm: York/Karplus (Gamma=1.0000).
                        Polarization charges: spherical gaussians, with
                                              point-specific exponents (IZeta= 3).
                        Self-potential: point-specific (ISelfS= 7).
                        Self-field    : sphere-specific E.n sum rule (ISelfD= 2).
 1st derivatives      : Analytical E(r).r(x)/FMM algorithm (CHGder, D1EAlg=3).
                        Cavity 1st derivative terms included.
 Solvent              : Water, Eps=  78.355300 Eps(inf)=   1.777849
 ------------------------------------------------------------------------------
 Spheres list:
 ISph  on   Nord     Re0    Alpha      Xe            Ye            Ze
    1   C      1    1.9255  1.100      1.584582      1.289598      0.017725
    2   H      2    1.4430  1.100      2.049722      1.393435      1.006531
    3   H      3    1.4430  1.100      0.929433      2.142732     -0.167573
    4   H      4    1.4430  1.100      2.399578      1.268497     -0.714388
    5   C      5    1.9255  1.100      0.811492     -0.000148     -0.023042
    6   C      6    1.9255  1.100      1.589345     -1.286936      0.022512
    7   H      7    1.4430  1.100      2.157589     -1.391783     -0.910693
    8   H      8    1.4430  1.100      2.321601     -1.260663      0.837191
    9   H      9    1.4430  1.100      0.921271     -2.142148      0.139597
   10   O     10    1.7500  1.100     -0.418804     -0.002488     -0.092729
   11   O     11    1.7500  1.100     -2.893008      0.000489      0.127367
   12   H     12    1.4430  1.100     -2.284437      0.772450     -0.011045
   13   H     13    1.4430  1.100     -2.278496     -0.770602      0.007970
   14   H     14    1.4430  1.100     -3.591711     -0.010660     -0.564543
 ------------------------------------------------------------------------------
 One-electron integrals computed using PRISM.
 PrsmSu:  requested number of processors reduced to:  30 ShMem   1 Linda.
 NBasis=   113 RedAO= T EigKep=  1.34D-04  NBF=   113
 NBsUse=   113 1.00D-06 EigRej= -1.00D+00 NBFU=   113
 Initial guess from the checkpoint file:  "SCAN.chk"
 B after Tr=     0.001871    0.000015    0.000146
         Rot=    1.000000   -0.000041   -0.000078   -0.000001 Ang=  -0.01 deg.
 Requested convergence on RMS density matrix=1.00D-08 within 128 cycles.
 Requested convergence on MAX density matrix=1.00D-06.
 Requested convergence on             energy=1.00D-06.
 No special actions if energy rises.
 Inv3:  Mode=1 IEnd=     4363308.
 Iteration    1 A*A^-1 deviation from unit magnitude is 3.77D-15 for   1204.
 Iteration    1 A*A^-1 deviation from orthogonality  is 3.48D-15 for   1204   1067.
 Iteration    1 A^-1*A deviation from unit magnitude is 3.77D-15 for   1204.
 Iteration    1 A^-1*A deviation from orthogonality  is 1.84D-15 for   1172    507.
 Error on total polarization charges =  0.00780
 SCF Done:  E(RB3LYP) =  -270.014523293     A.U. after    9 cycles
            NFock=  9  Conv=0.30D-08     -V/T= 2.0100
 PrsmSu:  requested number of processors reduced to:  30 ShMem   1 Linda.
 D1PCM: PCM CHGder 1st derivatives, ID1Alg=3 FixD1E=F DoIter=F DoCFld=F I1PDM=0.
 CoulSu:  requested number of processors reduced to:  29 ShMem   1 Linda.
 CoulSu:  requested number of processors reduced to:  30 ShMem   1 Linda.
 Calling FoFJK, ICntrl=      2127 FMM=F ISym2X=0 I1Cent= 0 IOpClX= 0 NMat=1 NMatS=1 NMatT=0.
 -------------------------------------------------------------------
 Center     Atomic                   Forces (Hartrees/Bohr)
 Number     Number              X              Y              Z
 -------------------------------------------------------------------
      1        6          -0.000234583   -0.000366601   -0.000037221
      2        1           0.000021576    0.000068062    0.000014863
      3        1          -0.000069349    0.000047447   -0.000023277
      4        1           0.000043438    0.000067625   -0.000030564
      5        6           0.000884738   -0.000022627    0.000062290
      6        6          -0.000238944    0.000364109   -0.000060203
      7        1           0.000023031   -0.000071150   -0.000028567
      8        1           0.000043835   -0.000071099    0.000024649
      9        1          -0.000072154   -0.000048501    0.000008513
     10        8          -0.001110642    0.000019109    0.000036357
     11        8           0.000046576   -0.000150870    0.000044937
     12        1           0.000378183   -0.000011144   -0.000027126
     13        1           0.000300101    0.000169332   -0.000001651
     14        1          -0.000015808    0.000006308    0.000017000
 -------------------------------------------------------------------
 Cartesian Forces:  Max     0.001110642 RMS     0.000255350

 GradGradGradGradGradGradGradGradGradGradGradGradGradGradGradGradGradGrad
 Berny optimization.
 Using GEDIIS/GDIIS optimizer.
 FormGI is forming the generalized inverse of G from B-inverse, IUseBI=4.
 Internal  Forces:  Max     0.000398893 RMS     0.000122024
 Search for a local minimum.
 Step number   2 out of a maximum of   71 on scan point     1 out of    11
 All quantities printed in internal units (Hartrees-Bohrs-Radians)
 Mixed Optimization -- En-DIIS/RFO-DIIS
 Swapping is turned off.
 Update second derivatives using D2CorX and points    1    2
 DE= -2.75D-05 DEPred=-2.40D-05 R= 1.15D+00
 TightC=F SS=  1.41D+00  RLast= 1.67D-02 DXNew= 5.0454D-01 5.0210D-02
 Trust test= 1.15D+00 RLast= 1.67D-02 DXMaxT set to 3.00D-01
 ITU=  1  0
     Eigenvalues ---    0.00698   0.00700   0.00846   0.01542   0.02769
     Eigenvalues ---    0.03910   0.06279   0.06749   0.07193   0.07201
     Eigenvalues ---    0.07566   0.07672   0.10923   0.11357   0.15119
     Eigenvalues ---    0.16000   0.16000   0.16000   0.16000   0.16175
     Eigenvalues ---    0.19401   0.22838   0.25001   0.31155   0.31859
     Eigenvalues ---    0.33791   0.33864   0.33992   0.34192   0.34445
     Eigenvalues ---    0.38258   0.44895   0.45564   0.50755   0.90763
     Eigenvalues --- 1000.000001000.000001000.000001000.000001000.00000
     Eigenvalues --- 1000.000001000.000001000.000001000.000001000.00000
     Eigenvalues --- 1000.000001000.000001000.000001000.000001000.00000
     Eigenvalues --- 1000.000001000.000001000.000001000.000001000.00000
     Eigenvalues --- 1000.000001000.000001000.000001000.000001000.00000
     Eigenvalues --- 1000.00000
 En-DIIS/RFO-DIIS/Sim-DIIS IScMMF=       -3 using points:     2    1
 RFO step:  Lambda=-5.04617205D-06.
 DidBck=F Rises=F RFO-DIIS coefs:    1.37050   -0.37050
 Iteration  1 RMS(Cart)=  0.00206209 RMS(Int)=  0.00000237
 Iteration  2 RMS(Cart)=  0.00000206 RMS(Int)=  0.00000150
 Iteration  3 RMS(Cart)=  0.00000000 RMS(Int)=  0.00000150
 Iteration  1 RMS(Cart)=  0.00000005 RMS(Int)=  0.00000002
 Variable       Old X    -DE/DX   Delta X   Delta X   Delta X     New X
                                 (Linear)    (Quad)   (Total)
    R1        2.07429   0.00004  -0.00097   0.00090  -0.00007   2.07422
    R2        2.06265   0.00008  -0.00119   0.00121   0.00003   2.06268
    R3        2.07065   0.00004  -0.00104   0.00096  -0.00007   2.07058
    R4        2.84263  -0.00028  -0.00050  -0.00064  -0.00114   2.84149
    R5        2.84274  -0.00028  -0.00050  -0.00063  -0.00113   2.84161
    R6        2.32865   0.00040  -0.00001   0.00053   0.00052   2.32917
    R7        2.07420   0.00004  -0.00096   0.00089  -0.00007   2.07413
    R8        2.07060   0.00005  -0.00104   0.00099  -0.00005   2.07055
    R9        2.06268   0.00008  -0.00118   0.00121   0.00003   2.06271
   R10        3.82070  -0.00037  -0.00000   0.00000  -0.00000   3.82070
   R11        3.80703  -0.00037  -0.00175  -0.00367  -0.00542   3.80161
   R12        1.87592   0.00008  -0.00040   0.00021  -0.00019   1.87573
   R13        1.87689  -0.00008  -0.00019   0.00026   0.00007   1.87696
   R14        1.85833   0.00001  -0.00023   0.00022  -0.00002   1.85831
    A1        1.91063  -0.00003  -0.00109   0.00043  -0.00066   1.90997
    A2        1.86348  -0.00005  -0.00024   0.00014  -0.00011   1.86337
    A3        1.90001   0.00008   0.00125  -0.00038   0.00086   1.90088
    A4        1.92630  -0.00003  -0.00104   0.00054  -0.00050   1.92580
    A5        1.93593  -0.00008  -0.00028  -0.00054  -0.00082   1.93511
    A6        1.92585   0.00012   0.00142  -0.00016   0.00126   1.92711
    A7        2.05652   0.00037   0.00209   0.00009   0.00218   2.05870
    A8        2.11329  -0.00019  -0.00103  -0.00010  -0.00113   2.11216
    A9        2.11337  -0.00018  -0.00106   0.00000  -0.00105   2.11232
   A10        1.90039   0.00009   0.00121  -0.00019   0.00101   1.90141
   A11        1.92577   0.00010   0.00147  -0.00033   0.00114   1.92691
   A12        1.93582  -0.00009  -0.00029  -0.00055  -0.00084   1.93499
   A13        1.86341  -0.00005  -0.00020   0.00011  -0.00010   1.86331
   A14        1.91052  -0.00003  -0.00106   0.00049  -0.00057   1.90994
   A15        1.92630  -0.00003  -0.00110   0.00049  -0.00061   1.92570
   A16        2.73445  -0.00003  -0.00003  -0.00011  -0.00014   2.73431
   A17        2.73767  -0.00005  -0.00007  -0.00032  -0.00039   2.73728
   A18        0.78459   0.00008   0.00009   0.00043   0.00052   0.78511
   A19        1.77999  -0.00000   0.00011  -0.00021  -0.00010   1.77989
   A20        1.92441  -0.00000  -0.00045   0.00030  -0.00016   1.92425
   A21        1.92433   0.00000  -0.00047   0.00040  -0.00007   1.92426
   A22        1.84758  -0.00007  -0.00069  -0.00125  -0.00194   1.84564
   A23        1.85578  -0.00001   0.00032   0.00104   0.00136   1.85714
    D1       -1.18305  -0.00004  -0.00126  -0.00062  -0.00189  -1.18494
    D2        1.95969  -0.00004  -0.00133  -0.00046  -0.00179   1.95789
    D3        2.99680   0.00000  -0.00055  -0.00057  -0.00111   2.99569
    D4       -0.14364   0.00000  -0.00061  -0.00041  -0.00102  -0.14466
    D5        0.85658   0.00002  -0.00001  -0.00077  -0.00078   0.85580
    D6       -2.28387   0.00002  -0.00008  -0.00061  -0.00069  -2.28455
    D7       -1.18840  -0.00002  -0.00068   0.00052  -0.00016  -1.18856
    D8        0.85133   0.00003   0.00061   0.00036   0.00097   0.85231
    D9        2.99143   0.00000   0.00004   0.00038   0.00042   2.99185
   D10        1.95205  -0.00003  -0.00061   0.00036  -0.00025   1.95180
   D11       -2.29141   0.00003   0.00068   0.00020   0.00088  -2.29053
   D12       -0.15131   0.00000   0.00010   0.00022   0.00033  -0.15099
   D13       -0.23817   0.00000   0.00007  -0.00010  -0.00003  -0.23820
   D14       -2.88112  -0.00001   0.00004  -0.00023  -0.00018  -2.88130
   D15        2.90461   0.00000  -0.00000   0.00007   0.00006   2.90468
   D16        0.26166  -0.00001  -0.00003  -0.00006  -0.00009   0.26157
   D17       -2.76865   0.00001   0.00053  -0.00002   0.00051  -2.76814
   D18        0.10367  -0.00000   0.00053  -0.00004   0.00048   0.10415
   D19        2.76638  -0.00000  -0.00053   0.00009  -0.00043   2.76595
   D20       -0.10386  -0.00001  -0.00055  -0.00002  -0.00057  -0.10443
   D21       -0.15220  -0.00000  -0.00074   0.00018  -0.00056  -0.15276
   D22       -2.19609  -0.00000  -0.00006  -0.00030  -0.00036  -2.19645
   D23        0.15311   0.00001   0.00086   0.00007   0.00094   0.15405
   D24        2.19706   0.00000   0.00020   0.00047   0.00067   2.19773
         Item               Value     Threshold  Converged?
 Maximum Force            0.000399     0.000450     YES
 RMS     Force            0.000112     0.000300     YES
 Maximum Displacement     0.006595     0.001800     NO 
 RMS     Displacement     0.002062     0.001200     NO 
 Predicted change in Energy=-2.523255D-06
 GradGradGradGradGradGradGradGradGradGradGradGradGradGradGradGradGradGrad

                          Input orientation:                          
 ---------------------------------------------------------------------
 Center     Atomic      Atomic             Coordinates (Angstroms)
 Number     Number       Type             X           Y           Z
 ---------------------------------------------------------------------
      1          6           0        1.583926    1.289883    0.017705
      2          1           0        2.047785    1.395901    1.006841
      3          1           0        0.927425    2.141747   -0.168728
      4          1           0        2.399737    1.270572   -0.713488
      5          6           0        0.812413   -0.000104   -0.023049
      6          6           0        1.588423   -1.287314    0.022246
      7          1           0        2.156756   -1.393741   -0.910680
      8          1           0        2.320431   -1.263582    0.837193
      9          1           0        0.918576   -2.141229    0.138817
     10          8           0       -0.418155   -0.002263   -0.092786
     11          8           0       -2.890740    0.000311    0.127786
     12          1           0       -2.283575    0.773178   -0.011026
     13          1           0       -2.275006   -0.769754    0.007743
     14          1           0       -3.589837   -0.011835   -0.563695
 ---------------------------------------------------------------------
                    Distance matrix (angstroms):
                    1          2          3          4          5
     1  C    0.000000
     2  H    1.097631   0.000000
     3  H    1.091523   1.787024   0.000000
     4  H    1.095703   1.760429   1.795387   0.000000
     5  C    1.503649   2.129706   2.149878   2.147307   0.000000
     6  C    2.577206   2.894837   3.497407   2.782503   1.503714
     7  H    2.896873   3.386866   3.815943   2.682627   2.130111
     8  H    2.781040   2.678799   3.814264   2.972009   2.147210
     9  H    3.497126   3.813117   4.294012   3.815842   2.149857
    10  O    2.385410   3.040543   2.532416   3.153712   1.232544
    11  O    4.658084   5.206672   4.387716   5.505493   3.706223
    12  H    3.901971   4.492718   3.494048   4.761751   3.191121
    13  H    4.374193   4.937082   4.331690   5.151343   3.182053
    14  H    5.366593   6.019226   5.019917   6.127154   4.435340
                    6          7          8          9         10
     6  C    0.000000
     7  H    1.097580   0.000000
     8  H    1.095690   1.760339   0.000000
     9  H    1.091537   1.786973   1.795325   0.000000
    10  O    2.385570   3.038968   3.155256   2.532916   0.000000
    11  O    4.661761   5.338446   5.408972   4.370034   2.482405
    12  H    4.386241   5.022097   5.105364   4.332435   2.021827
    13  H    3.897969   4.568739   4.695731   3.478087   2.011726
    14  H    5.365124   5.920591   6.201663   5.035239   3.206464
                   11         12         13         14
    11  O    0.000000
    12  H    0.992593   0.000000
    13  H    0.993246   1.543070   0.000000
    14  H    0.983378   1.621114   1.621655   0.000000
 Symmetry turned off by external request.
 Stoichiometry    C3H9O2(1+)
 Framework group  C1[X(C3H9O2)]
 Deg. of freedom    36
 Full point group                 C1      NOp   1
 Rotational constants (GHZ):           8.2459416           1.9907764           1.6436271
 Standard basis: 6-31+G(d) (6D, 7F)
   113 basis functions,   196 primitive gaussians,   113 cartesian basis functions
    21 alpha electrons       21 beta electrons
       nuclear repulsion energy       184.0088177110 Hartrees.
 NAtoms=   14 NActive=   14 NUniq=   14 SFac= 1.00D+00 NAtFMM=   60 NAOKFM=F Big=F
 Integral buffers will be    131072 words long.
 Raffenetti 2 integral format.
 Two-electron integral symmetry is turned off.
 Nuclear repulsion after empirical dispersion term =      183.9958079830 Hartrees.
 ------------------------------------------------------------------------------
 Polarizable Continuum Model (PCM)
 =================================
 Model                : PCM.
 Atomic radii         : UFF (Universal Force Field).
 Polarization charges : Total charges.
 Charge compensation  : None.
 Solution method      : On-the-fly selection.
 Cavity type          : Scaled VdW (van der Waals Surface) (Alpha=1.100).
 Cavity algorithm     : GePol (No added spheres)
                        Default sphere list used, NSphG=   14.
                        Lebedev-Laikov grids with approx.  5.0 points / Ang**2.
                        Smoothing algorithm: York/Karplus (Gamma=1.0000).
                        Polarization charges: spherical gaussians, with
                                              point-specific exponents (IZeta= 3).
                        Self-potential: point-specific (ISelfS= 7).
                        Self-field    : sphere-specific E.n sum rule (ISelfD= 2).
 1st derivatives      : Analytical E(r).r(x)/FMM algorithm (CHGder, D1EAlg=3).
                        Cavity 1st derivative terms included.
 Solvent              : Water, Eps=  78.355300 Eps(inf)=   1.777849
 ------------------------------------------------------------------------------
 Spheres list:
 ISph  on   Nord     Re0    Alpha      Xe            Ye            Ze
    1   C      1    1.9255  1.100      1.583926      1.289883      0.017705
    2   H      2    1.4430  1.100      2.047785      1.395901      1.006841
    3   H      3    1.4430  1.100      0.927425      2.141747     -0.168728
    4   H      4    1.4430  1.100      2.399737      1.270572     -0.713488
    5   C      5    1.9255  1.100      0.812413     -0.000104     -0.023049
    6   C      6    1.9255  1.100      1.588423     -1.287314      0.022246
    7   H      7    1.4430  1.100      2.156756     -1.393741     -0.910680
    8   H      8    1.4430  1.100      2.320431     -1.263582      0.837193
    9   H      9    1.4430  1.100      0.918576     -2.141229      0.138817
   10   O     10    1.7500  1.100     -0.418155     -0.002263     -0.092786
   11   O     11    1.7500  1.100     -2.890740      0.000311      0.127786
   12   H     12    1.4430  1.100     -2.283575      0.773178     -0.011026
   13   H     13    1.4430  1.100     -2.275006     -0.769754      0.007743
   14   H     14    1.4430  1.100     -3.589837     -0.011835     -0.563695
 ------------------------------------------------------------------------------
 One-electron integrals computed using PRISM.
 PrsmSu:  requested number of processors reduced to:  30 ShMem   1 Linda.
 NBasis=   113 RedAO= T EigKep=  1.33D-04  NBF=   113
 NBsUse=   113 1.00D-06 EigRej= -1.00D+00 NBFU=   113
 Initial guess from the checkpoint file:  "SCAN.chk"
 B after Tr=     0.000753    0.000004    0.000048
         Rot=    1.000000   -0.000023   -0.000040   -0.000002 Ang=  -0.01 deg.
 Requested convergence on RMS density matrix=1.00D-08 within 128 cycles.
 Requested convergence on MAX density matrix=1.00D-06.
 Requested convergence on             energy=1.00D-06.
 No special actions if energy rises.
 Inv3:  Mode=1 IEnd=     4370547.
 Iteration    1 A*A^-1 deviation from unit magnitude is 4.22D-15 for   1204.
 Iteration    1 A*A^-1 deviation from orthogonality  is 2.44D-15 for   1205   1067.
 Iteration    1 A^-1*A deviation from unit magnitude is 4.22D-15 for   1204.
 Iteration    1 A^-1*A deviation from orthogonality  is 3.11D-10 for   1191   1104.
 Iteration    2 A*A^-1 deviation from unit magnitude is 1.55D-15 for    348.
 Iteration    2 A*A^-1 deviation from orthogonality  is 1.87D-15 for   1206    163.
 Iteration    2 A^-1*A deviation from unit magnitude is 9.99D-16 for     95.
 Iteration    2 A^-1*A deviation from orthogonality  is 9.56D-16 for   1206    196.
 Error on total polarization charges =  0.00780
 SCF Done:  E(RB3LYP) =  -270.014526939     A.U. after    7 cycles
            NFock=  7  Conv=0.67D-08     -V/T= 2.0100
 PrsmSu:  requested number of processors reduced to:  30 ShMem   1 Linda.
 D1PCM: PCM CHGder 1st derivatives, ID1Alg=3 FixD1E=F DoIter=F DoCFld=F I1PDM=0.
 CoulSu:  requested number of processors reduced to:  29 ShMem   1 Linda.
 CoulSu:  requested number of processors reduced to:  30 ShMem   1 Linda.
 Calling FoFJK, ICntrl=      2127 FMM=F ISym2X=0 I1Cent= 0 IOpClX= 0 NMat=1 NMatS=1 NMatT=0.
 -------------------------------------------------------------------
 Center     Atomic                   Forces (Hartrees/Bohr)
 Number     Number              X              Y              Z
 -------------------------------------------------------------------
      1        6          -0.000070593   -0.000050292   -0.000046327
      2        1           0.000039286   -0.000007354    0.000055468
      3        1          -0.000060167    0.000059467   -0.000022604
      4        1           0.000060136   -0.000023784   -0.000050757
      5        6           0.000307183   -0.000039986    0.000001366
      6        6          -0.000082423    0.000045738   -0.000014266
      7        1           0.000039617    0.000008621   -0.000062081
      8        1           0.000062396    0.000021718    0.000043008
      9        1          -0.000062400   -0.000060666    0.000009777
     10        8          -0.000869513    0.000021258    0.000046757
     11        8          -0.000097773   -0.000180128    0.000020140
     12        1           0.000408798    0.000025481   -0.000015042
     13        1           0.000357584    0.000170381    0.000006531
     14        1          -0.000032131    0.000009545    0.000028028
 -------------------------------------------------------------------
 Cartesian Forces:  Max     0.000869513 RMS     0.000174652

 GradGradGradGradGradGradGradGradGradGradGradGradGradGradGradGradGradGrad
 Berny optimization.
 Using GEDIIS/GDIIS optimizer.
 FormGI is forming the generalized inverse of G from B-inverse, IUseBI=4.
 Internal  Forces:  Max     0.000344353 RMS     0.000077030
 Search for a local minimum.
 Step number   3 out of a maximum of   71 on scan point     1 out of    11
 All quantities printed in internal units (Hartrees-Bohrs-Radians)
 Mixed Optimization -- En-DIIS/RFO-DIIS
 Swapping is turned off.
 Update second derivatives using D2CorX and points    1    2    3
 DE= -3.65D-06 DEPred=-2.52D-06 R= 1.45D+00
 TightC=F SS=  1.41D+00  RLast= 8.25D-03 DXNew= 5.0454D-01 2.4747D-02
 Trust test= 1.45D+00 RLast= 8.25D-03 DXMaxT set to 3.00D-01
 ITU=  1  1  0
     Eigenvalues ---    0.00677   0.00700   0.00841   0.01540   0.02747
     Eigenvalues ---    0.02954   0.03920   0.06499   0.07194   0.07204
     Eigenvalues ---    0.07556   0.07967   0.10907   0.11351   0.15999
     Eigenvalues ---    0.16000   0.16000   0.16000   0.16127   0.17133
     Eigenvalues ---    0.19580   0.24971   0.25765   0.31857   0.32364
     Eigenvalues ---    0.33794   0.33881   0.33993   0.34258   0.34445
     Eigenvalues ---    0.39334   0.44887   0.47057   0.50831   0.89017
     Eigenvalues --- 1000.000001000.000001000.000001000.000001000.00000
     Eigenvalues --- 1000.000001000.000001000.000001000.000001000.00000
     Eigenvalues --- 1000.000001000.000001000.000001000.000001000.00000
     Eigenvalues --- 1000.000001000.000001000.000001000.000001000.00000
     Eigenvalues --- 1000.000001000.000001000.000001000.000001000.00000
     Eigenvalues --- 1000.00000
 En-DIIS/RFO-DIIS/Sim-DIIS IScMMF=       -3 using points:     3    2    1
 RFO step:  Lambda=-4.35529135D-06.
 DidBck=F Rises=F RFO-DIIS coefs:    2.29239   -1.22101   -0.07137
 Iteration  1 RMS(Cart)=  0.00233839 RMS(Int)=  0.00000262
 Iteration  2 RMS(Cart)=  0.00000243 RMS(Int)=  0.00000131
 Iteration  3 RMS(Cart)=  0.00000000 RMS(Int)=  0.00000131
 Iteration  1 RMS(Cart)=  0.00000009 RMS(Int)=  0.00000003
 Variable       Old X    -DE/DX   Delta X   Delta X   Delta X     New X
                                 (Linear)    (Quad)   (Total)
    R1        2.07422   0.00008  -0.00028   0.00032   0.00004   2.07426
    R2        2.06268   0.00009  -0.00019   0.00026   0.00007   2.06275
    R3        2.07058   0.00007  -0.00030   0.00029  -0.00001   2.07057
    R4        2.84149  -0.00003  -0.00157   0.00066  -0.00090   2.84058
    R5        2.84161  -0.00004  -0.00156   0.00064  -0.00091   2.84069
    R6        2.32917   0.00023   0.00067  -0.00001   0.00065   2.32982
    R7        2.07413   0.00007  -0.00028   0.00028   0.00000   2.07413
    R8        2.07055   0.00008  -0.00026   0.00030   0.00004   2.07060
    R9        2.06271   0.00009  -0.00019   0.00026   0.00007   2.06278
   R10        3.82070  -0.00032  -0.00000   0.00000  -0.00000   3.82070
   R11        3.80161  -0.00034  -0.00734  -0.00221  -0.00956   3.79205
   R12        1.87573   0.00015  -0.00032   0.00023  -0.00009   1.87564
   R13        1.87696  -0.00003   0.00006   0.00020   0.00026   1.87723
   R14        1.85831   0.00002  -0.00007   0.00005  -0.00002   1.85830
    A1        1.90997   0.00001  -0.00106   0.00055  -0.00051   1.90946
    A2        1.86337   0.00000  -0.00018  -0.00004  -0.00022   1.86315
    A3        1.90088  -0.00002   0.00136  -0.00082   0.00054   1.90142
    A4        1.92580   0.00002  -0.00085   0.00060  -0.00025   1.92555
    A5        1.93511  -0.00001  -0.00112   0.00061  -0.00051   1.93460
    A6        1.92711  -0.00001   0.00190  -0.00094   0.00096   1.92807
    A7        2.05870   0.00003   0.00322  -0.00132   0.00190   2.06060
    A8        2.11216  -0.00002  -0.00166   0.00063  -0.00102   2.11114
    A9        2.11232  -0.00001  -0.00157   0.00069  -0.00088   2.11144
   A10        1.90141  -0.00001   0.00154  -0.00083   0.00072   1.90212
   A11        1.92691  -0.00002   0.00176  -0.00099   0.00076   1.92767
   A12        1.93499  -0.00000  -0.00114   0.00065  -0.00049   1.93450
   A13        1.86331   0.00000  -0.00016  -0.00008  -0.00024   1.86307
   A14        1.90994   0.00002  -0.00095   0.00061  -0.00034   1.90960
   A15        1.92570   0.00002  -0.00100   0.00060  -0.00039   1.92530
   A16        2.73431  -0.00002  -0.00018   0.00005  -0.00013   2.73418
   A17        2.73728  -0.00006  -0.00052  -0.00024  -0.00076   2.73653
   A18        0.78511   0.00008   0.00069   0.00019   0.00088   0.78600
   A19        1.77989  -0.00006  -0.00011  -0.00041  -0.00052   1.77937
   A20        1.92425   0.00002  -0.00029   0.00030   0.00001   1.92427
   A21        1.92426   0.00003  -0.00018   0.00040   0.00022   1.92448
   A22        1.84564  -0.00005  -0.00264  -0.00057  -0.00321   1.84243
   A23        1.85714   0.00004   0.00183   0.00084   0.00266   1.85981
    D1       -1.18494   0.00000  -0.00268   0.00061  -0.00207  -1.18701
    D2        1.95789  -0.00000  -0.00257   0.00026  -0.00231   1.95558
    D3        2.99569   0.00000  -0.00154   0.00007  -0.00147   2.99422
    D4       -0.14466  -0.00000  -0.00144  -0.00028  -0.00171  -0.14638
    D5        0.85580  -0.00001  -0.00101  -0.00046  -0.00147   0.85433
    D6       -2.28455  -0.00002  -0.00091  -0.00081  -0.00171  -2.28627
    D7       -1.18856   0.00001  -0.00034   0.00054   0.00020  -1.18836
    D8        0.85231  -0.00001   0.00138  -0.00061   0.00077   0.85307
    D9        2.99185  -0.00000   0.00055  -0.00009   0.00046   2.99231
   D10        1.95180   0.00001  -0.00044   0.00089   0.00044   1.95224
   D11       -2.29053  -0.00001   0.00127  -0.00026   0.00101  -2.28952
   D12       -0.15099   0.00000   0.00044   0.00026   0.00070  -0.15028
   D13       -0.23820  -0.00000  -0.00003   0.00004   0.00001  -0.23819
   D14       -2.88130  -0.00001  -0.00023  -0.00005  -0.00028  -2.88158
   D15        2.90468  -0.00000   0.00008  -0.00032  -0.00024   2.90443
   D16        0.26157  -0.00001  -0.00012  -0.00041  -0.00053   0.26104
   D17       -2.76814   0.00001   0.00077  -0.00012   0.00064  -2.76750
   D18        0.10415  -0.00000   0.00073  -0.00018   0.00055   0.10470
   D19        2.76595   0.00000  -0.00066   0.00027  -0.00039   2.76555
   D20       -0.10443  -0.00001  -0.00084   0.00014  -0.00071  -0.10514
   D21       -0.15276   0.00001  -0.00087   0.00035  -0.00051  -0.15328
   D22       -2.19645  -0.00001  -0.00048  -0.00002  -0.00050  -2.19695
   D23        0.15405  -0.00000   0.00138  -0.00020   0.00117   0.15523
   D24        2.19773   0.00000   0.00091   0.00010   0.00101   2.19874
         Item               Value     Threshold  Converged?
 Maximum Force            0.000302     0.000450     YES
 RMS     Force            0.000064     0.000300     YES
 Maximum Displacement     0.009708     0.001800     NO 
 RMS     Displacement     0.002339     0.001200     NO 
 Predicted change in Energy=-2.154671D-06
 GradGradGradGradGradGradGradGradGradGradGradGradGradGradGradGradGradGrad

                          Input orientation:                          
 ---------------------------------------------------------------------
 Center     Atomic      Atomic             Coordinates (Angstroms)
 Number     Number       Type             X           Y           Z
 ---------------------------------------------------------------------
      1          6           0        1.583189    1.290132    0.017618
      2          1           0        2.045308    1.397971    1.007394
      3          1           0        0.925921    2.141103   -0.170401
      4          1           0        2.400328    1.271836   -0.712110
      5          6           0        0.812857    0.000001   -0.023313
      6          6           0        1.587100   -1.287713    0.021883
      7          1           0        2.155905   -1.395244   -0.910632
      8          1           0        2.318736   -1.266043    0.837251
      9          1           0        0.915759   -2.140597    0.137753
     10          8           0       -0.418060   -0.001783   -0.093008
     11          8           0       -2.888036   -0.000090    0.128359
     12          1           0       -2.283150    0.774417   -0.010914
     13          1           0       -2.269869   -0.768234    0.007364
     14          1           0       -3.587834   -0.013985   -0.562366
 ---------------------------------------------------------------------
                    Distance matrix (angstroms):
                    1          2          3          4          5
     1  C    0.000000
     2  H    1.097651   0.000000
     3  H    1.091561   1.786749   0.000000
     4  H    1.095698   1.760296   1.795257   0.000000
     5  C    1.503171   2.129698   2.149124   2.147572   0.000000
     6  C    2.577851   2.897255   3.497271   2.784129   1.503230
     7  H    2.898429   3.390148   3.816615   2.685604   2.130216
     8  H    2.783318   2.683409   3.816273   2.974561   2.147350
     9  H    3.497112   3.814921   4.292787   3.817187   2.149114
    10  O    2.384592   3.039470   2.530659   3.154156   1.232890
    11  O    4.654975   5.202419   4.384089   5.503724   3.704000
    12  H    3.900687   4.490136   3.491620   4.761729   3.191416
    13  H    4.368413   4.930848   4.325380   5.146870   3.177157
    14  H    5.364381   6.015817   5.017173   6.126487   4.433605
                    6          7          8          9         10
     6  C    0.000000
     7  H    1.097582   0.000000
     8  H    1.095713   1.760200   0.000000
     9  H    1.091575   1.786792   1.795129   0.000000
    10  O    2.384844   3.039003   3.154963   2.531175   0.000000
    11  O    4.657912   5.335475   5.405149   4.364712   2.479877
    12  H    4.385463   5.022164   5.104921   4.330407   2.021827
    13  H    3.891822   4.563259   4.689544   3.471110   2.006669
    14  H    5.361312   5.917745   6.197915   5.029412   3.204358
                   11         12         13         14
    11  O    0.000000
    12  H    0.992545   0.000000
    13  H    0.993385   1.542816   0.000000
    14  H    0.983368   1.621072   1.621886   0.000000
 Symmetry turned off by external request.
 Stoichiometry    C3H9O2(1+)
 Framework group  C1[X(C3H9O2)]
 Deg. of freedom    36
 Full point group                 C1      NOp   1
 Rotational constants (GHZ):           8.2414073           1.9938043           1.6455106
 Standard basis: 6-31+G(d) (6D, 7F)
   113 basis functions,   196 primitive gaussians,   113 cartesian basis functions
    21 alpha electrons       21 beta electrons
       nuclear repulsion energy       184.0578562759 Hartrees.
 NAtoms=   14 NActive=   14 NUniq=   14 SFac= 1.00D+00 NAtFMM=   60 NAOKFM=F Big=F
 Integral buffers will be    131072 words long.
 Raffenetti 2 integral format.
 Two-electron integral symmetry is turned off.
 Nuclear repulsion after empirical dispersion term =      184.0448433395 Hartrees.
 ------------------------------------------------------------------------------
 Polarizable Continuum Model (PCM)
 =================================
 Model                : PCM.
 Atomic radii         : UFF (Universal Force Field).
 Polarization charges : Total charges.
 Charge compensation  : None.
 Solution method      : On-the-fly selection.
 Cavity type          : Scaled VdW (van der Waals Surface) (Alpha=1.100).
 Cavity algorithm     : GePol (No added spheres)
                        Default sphere list used, NSphG=   14.
                        Lebedev-Laikov grids with approx.  5.0 points / Ang**2.
                        Smoothing algorithm: York/Karplus (Gamma=1.0000).
                        Polarization charges: spherical gaussians, with
                                              point-specific exponents (IZeta= 3).
                        Self-potential: point-specific (ISelfS= 7).
                        Self-field    : sphere-specific E.n sum rule (ISelfD= 2).
 1st derivatives      : Analytical E(r).r(x)/FMM algorithm (CHGder, D1EAlg=3).
                        Cavity 1st derivative terms included.
 Solvent              : Water, Eps=  78.355300 Eps(inf)=   1.777849
 ------------------------------------------------------------------------------
 Spheres list:
 ISph  on   Nord     Re0    Alpha      Xe            Ye            Ze
    1   C      1    1.9255  1.100      1.583189      1.290132      0.017618
    2   H      2    1.4430  1.100      2.045308      1.397971      1.007394
    3   H      3    1.4430  1.100      0.925921      2.141103     -0.170401
    4   H      4    1.4430  1.100      2.400328      1.271836     -0.712110
    5   C      5    1.9255  1.100      0.812857      0.000001     -0.023313
    6   C      6    1.9255  1.100      1.587100     -1.287713      0.021883
    7   H      7    1.4430  1.100      2.155905     -1.395244     -0.910632
    8   H      8    1.4430  1.100      2.318736     -1.266043      0.837251
    9   H      9    1.4430  1.100      0.915759     -2.140597      0.137753
   10   O     10    1.7500  1.100     -0.418060     -0.001783     -0.093008
   11   O     11    1.7500  1.100     -2.888036     -0.000090      0.128359
   12   H     12    1.4430  1.100     -2.283150      0.774417     -0.010914
   13   H     13    1.4430  1.100     -2.269869     -0.768234      0.007364
   14   H     14    1.4430  1.100     -3.587834     -0.013985     -0.562366
 ------------------------------------------------------------------------------
 One-electron integrals computed using PRISM.
 PrsmSu:  requested number of processors reduced to:  30 ShMem   1 Linda.
 NBasis=   113 RedAO= T EigKep=  1.32D-04  NBF=   113
 NBsUse=   113 1.00D-06 EigRej= -1.00D+00 NBFU=   113
 Initial guess from the checkpoint file:  "SCAN.chk"
 B after Tr=     0.000506    0.000014   -0.000049
         Rot=    1.000000   -0.000030   -0.000059   -0.000006 Ang=  -0.01 deg.
 Requested convergence on RMS density matrix=1.00D-08 within 128 cycles.
 Requested convergence on MAX density matrix=1.00D-06.
 Requested convergence on             energy=1.00D-06.
 No special actions if energy rises.
 Inv3:  Mode=1 IEnd=     4377792.
 Iteration    1 A*A^-1 deviation from unit magnitude is 2.89D-15 for   1170.
 Iteration    1 A*A^-1 deviation from orthogonality  is 1.52D-15 for    687    234.
 Iteration    1 A^-1*A deviation from unit magnitude is 2.89D-15 for   1170.
 Iteration    1 A^-1*A deviation from orthogonality  is 4.12D-11 for   1192   1106.
 Error on total polarization charges =  0.00780
 SCF Done:  E(RB3LYP) =  -270.014529978     A.U. after    8 cycles
            NFock=  8  Conv=0.31D-08     -V/T= 2.0100
 PrsmSu:  requested number of processors reduced to:  30 ShMem   1 Linda.
 D1PCM: PCM CHGder 1st derivatives, ID1Alg=3 FixD1E=F DoIter=F DoCFld=F I1PDM=0.
 CoulSu:  requested number of processors reduced to:  29 ShMem   1 Linda.
 CoulSu:  requested number of processors reduced to:  30 ShMem   1 Linda.
 Calling FoFJK, ICntrl=      2127 FMM=F ISym2X=0 I1Cent= 0 IOpClX= 0 NMat=1 NMatS=1 NMatT=0.
 -------------------------------------------------------------------
 Center     Atomic                   Forces (Hartrees/Bohr)
 Number     Number              X              Y              Z
 -------------------------------------------------------------------
      1        6           0.000099912    0.000175690   -0.000050509
      2        1           0.000033852   -0.000064871    0.000067296
      3        1          -0.000043247    0.000045849   -0.000020775
      4        1           0.000053428   -0.000083216   -0.000061109
      5        6          -0.000322709   -0.000064628   -0.000021371
      6        6           0.000083953   -0.000180760    0.000010907
      7        1           0.000036387    0.000061798   -0.000075613
      8        1           0.000054969    0.000085544    0.000046536
      9        1          -0.000045609   -0.000045710    0.000008387
     10        8          -0.000466467    0.000024300    0.000048195
     11        8          -0.000203086   -0.000187957    0.000005401
     12        1           0.000362935    0.000033335    0.000000950
     13        1           0.000386736    0.000188429    0.000004978
     14        1          -0.000031055    0.000012198    0.000036728
 -------------------------------------------------------------------
 Cartesian Forces:  Max     0.000466467 RMS     0.000143504

 GradGradGradGradGradGradGradGradGradGradGradGradGradGradGradGradGradGrad
 Berny optimization.
 Using GEDIIS/GDIIS optimizer.
 FormGI is forming the generalized inverse of G from B-inverse, IUseBI=4.
 Internal  Forces:  Max     0.000314601 RMS     0.000086058
 Search for a local minimum.
 Step number   4 out of a maximum of   71 on scan point     1 out of    11
 All quantities printed in internal units (Hartrees-Bohrs-Radians)
 Mixed Optimization -- En-DIIS/RFO-DIIS
 Swapping is turned off.
 Update second derivatives using D2CorX and points    1    2    3    4
 DE= -3.04D-06 DEPred=-2.15D-06 R= 1.41D+00
 TightC=F SS=  1.41D+00  RLast= 1.22D-02 DXNew= 5.0454D-01 3.6572D-02
 Trust test= 1.41D+00 RLast= 1.22D-02 DXMaxT set to 3.00D-01
 ITU=  1  1  1  0
     Eigenvalues ---    0.00593   0.00700   0.00833   0.01327   0.01542
     Eigenvalues ---    0.02773   0.03928   0.06488   0.07193   0.07202
     Eigenvalues ---    0.07550   0.07926   0.10900   0.11359   0.15997
     Eigenvalues ---    0.16000   0.16000   0.16000   0.16151   0.17325
     Eigenvalues ---    0.19665   0.24991   0.29080   0.31859   0.33789
     Eigenvalues ---    0.33853   0.33991   0.34148   0.34445   0.36654
     Eigenvalues ---    0.40993   0.44845   0.48918   0.50720   0.92716
     Eigenvalues --- 1000.000001000.000001000.000001000.000001000.00000
     Eigenvalues --- 1000.000001000.000001000.000001000.000001000.00000
     Eigenvalues --- 1000.000001000.000001000.000001000.000001000.00000
     Eigenvalues --- 1000.000001000.000001000.000001000.000001000.00000
     Eigenvalues --- 1000.000001000.000001000.000001000.000001000.00000
     Eigenvalues --- 1000.00000
 En-DIIS/RFO-DIIS/Sim-DIIS IScMMF=       -3 using points:     4    3    2    1
 RFO step:  Lambda=-5.82215343D-06.
 DIIS inversion failure, remove point   4.
 DIIS inversion failure, remove point   3.
 RFO-DIIS uses    2 points instead of    4
 DidBck=F Rises=F RFO-DIIS coefs:    2.85208   -1.85208    0.00000    0.00000
 Iteration  1 RMS(Cart)=  0.00376658 RMS(Int)=  0.00000814
 Iteration  2 RMS(Cart)=  0.00000779 RMS(Int)=  0.00000318
 Iteration  3 RMS(Cart)=  0.00000000 RMS(Int)=  0.00000318
 Iteration  1 RMS(Cart)=  0.00000036 RMS(Int)=  0.00000013
 Variable       Old X    -DE/DX   Delta X   Delta X   Delta X     New X
                                 (Linear)    (Quad)   (Total)
    R1        2.07426   0.00008   0.00007   0.00013   0.00020   2.07446
    R2        2.06275   0.00007   0.00013   0.00007   0.00020   2.06295
    R3        2.07057   0.00007  -0.00002   0.00014   0.00012   2.07069
    R4        2.84058   0.00014  -0.00167   0.00066  -0.00101   2.83957
    R5        2.84069   0.00013  -0.00169   0.00065  -0.00104   2.83966
    R6        2.32982  -0.00005   0.00121  -0.00037   0.00084   2.33066
[...]
                    Distance matrix (angstroms):
                    1          2          3          4          5
     1  C    0.000000
     2  H    1.101162   0.000000
     3  H    1.093877   1.790370   0.000000
     4  H    1.094790   1.758909   1.801337   0.000000
     5  C    1.509124   2.138067   2.146782   2.160385   0.000000
     6  C    2.592389   2.920533   3.506382   2.802537   1.512243
     7  H    2.911031   3.415498   3.823601   2.704859   2.139598
     8  H    2.800731   2.714283   3.833132   2.985920   2.158584
     9  H    3.514450   3.841489   4.303087   3.836765   2.161528
    10  O    2.369879   3.026154   2.493702   3.152749   1.232019
    11  O    4.375316   4.984932   3.838692   5.215594   3.760684
    12  H    3.411443   4.059281   2.823548   4.247905   2.991934
    13  H    4.547655   5.160842   4.235611   5.361291   3.614114
    14  H    4.998662   5.707419   4.363785   5.734224   4.463161
                    6          7          8          9         10
     6  C    0.000000
     7  H    1.103537   0.000000
     8  H    1.095552   1.761041   0.000000
     9  H    1.091871   1.786146   1.799720   0.000000
    10  O    2.409604   3.061064   3.179434   2.572759   0.000000
    11  O    4.987252   5.575447   5.731571   4.937883   2.593950
    12  H    4.359714   4.909850   5.061054   4.512522   1.971827
    13  H    4.606508   5.219675   5.408712   4.358043   2.382096
    14  H    5.688918   6.153435   6.505052   5.644015   3.326251
                   11         12         13         14
    11  O    0.000000
    12  H    1.018526   0.000000
    13  H    1.001264   1.645272   0.000000
    14  H    0.964757   1.655406   1.596993   0.000000
 Symmetry turned off by external request.
 Stoichiometry    C3H9O2(1+)
 Framework group  C1[X(C3H9O2)]
 Deg. of freedom    36
 Full point group                 C1      NOp   1
 Rotational constants (GHZ):           8.3535144           1.9356946           1.6074738
 Standard basis: 6-31+G(d) (6D, 7F)
   113 basis functions,   196 primitive gaussians,   113 cartesian basis functions
    21 alpha electrons       21 beta electrons
       nuclear repulsion energy       182.5512510697 Hartrees.
 NAtoms=   14 NActive=   14 NUniq=   14 SFac= 1.00D+00 NAtFMM=   60 NAOKFM=F Big=F
 Integral buffers will be    131072 words long.
 Raffenetti 2 integral format.
 Two-electron integral symmetry is turned off.
 Nuclear repulsion after empirical dispersion term =      182.5383107696 Hartrees.
 ------------------------------------------------------------------------------
 Polarizable Continuum Model (PCM)
 =================================
 Model                : PCM.
 Atomic radii         : UFF (Universal Force Field).
 Polarization charges : Total charges.
 Charge compensation  : None.
 Solution method      : On-the-fly selection.
 Cavity type          : Scaled VdW (van der Waals Surface) (Alpha=1.100).
 Cavity algorithm     : GePol (No added spheres)
                        Default sphere list used, NSphG=   14.
                        Lebedev-Laikov grids with approx.  5.0 points / Ang**2.
                        Smoothing algorithm: York/Karplus (Gamma=1.0000).
                        Polarization charges: spherical gaussians, with
                                              point-specific exponents (IZeta= 3).
                        Self-potential: point-specific (ISelfS= 7).
                        Self-field    : sphere-specific E.n sum rule (ISelfD= 2).
 1st derivatives      : Analytical E(r).r(x)/FMM algorithm (CHGder, D1EAlg=3).
                        Cavity 1st derivative terms included.
 Solvent              : Water, Eps=  78.355300 Eps(inf)=   1.777849
 ------------------------------------------------------------------------------
 Spheres list:
 ISph  on   Nord     Re0    Alpha      Xe            Ye            Ze
    1   C      1    1.9255  1.100      1.376597      1.217722     -0.004838
    2   H      2    1.4430  1.100      1.867761      1.440464      0.955215
    3   H      3    1.4430  1.100      0.562688      1.930013     -0.168417
    4   H      4    1.4430  1.100      2.145027      1.321857     -0.777649
    5   C      5    1.9255  1.100      0.833626     -0.189738      0.036336
    6   C      6    1.9255  1.100      1.820078     -1.335862      0.050089
    7   H      7    1.4430  1.100      2.335349     -1.372266     -0.925085
    8   H      8    1.4430  1.100      2.596813     -1.169734      0.804621
    9   H      9    1.4430  1.100      1.315002     -2.289058      0.218900
   10   O     10    1.7500  1.100     -0.385650     -0.365836      0.051321
   11   O     11    1.7500  1.100     -2.897192      0.282771      0.058262
   12   H     12    1.4430  1.100     -2.003126      0.756638     -0.057889
   13   H     13    1.4430  1.100     -2.743109     -0.706321      0.080293
   14   H     14    1.4430  1.100     -3.525708      0.481121     -0.646281
 ------------------------------------------------------------------------------
 One-electron integrals computed using PRISM.
 PrsmSu:  requested number of processors reduced to:  30 ShMem   1 Linda.
 NBasis=   113 RedAO= T EigKep=  1.20D-04  NBF=   113
 NBsUse=   113 1.00D-06 EigRej= -1.00D+00 NBFU=   113
 Initial guess from the checkpoint file:  "SCAN.chk"
 B after Tr=     0.005073   -0.003915   -0.000911
         Rot=    0.999994    0.001279    0.001845    0.002493 Ang=   0.38 deg.
 ExpMin= 4.38D-02 ExpMax= 5.48D+03 ExpMxC= 8.25D+02 IAcc=3 IRadAn=         5 AccDes= 0.00D+00
 Harris functional with IExCor=  402 and IRadAn=       5 diagonalized for initial guess.
 HarFok:  IExCor=  402 AccDes= 0.00D+00 IRadAn=         5 IDoV= 1 UseB2=F ITyADJ=14
 ICtDFT=  3500011 ScaDFX=  1.000000  1.000000  1.000000  1.000000
 FoFCou: FMM=F IPFlag=           0 FMFlag=      100000 FMFlg1=           0
         NFxFlg=           0 DoJE=T BraDBF=F KetDBF=T FulRan=T
         wScrn=  0.000000 ICntrl=       500 IOpCl=  0 I1Cent=   200000004 NGrid=           0
         NMat0=    1 NMatS0=      1 NMatT0=    0 NMatD0=    1 NMtDS0=    0 NMtDT0=    0
 Symmetry not used in FoFCou.
 Requested convergence on RMS density matrix=1.00D-08 within 128 cycles.
 Requested convergence on MAX density matrix=1.00D-06.
 Requested convergence on             energy=1.00D-06.
 No special actions if energy rises.
 Inv3:  Mode=1 IEnd=     4546083.
 Iteration    1 A*A^-1 deviation from unit magnitude is 2.89D-15 for   1226.
 Iteration    1 A*A^-1 deviation from orthogonality  is 1.99D-15 for   1011    380.
 Iteration    1 A^-1*A deviation from unit magnitude is 2.89D-15 for   1217.
 Iteration    1 A^-1*A deviation from orthogonality  is 9.62D-15 for    723    685.
 Error on total polarization charges =  0.00801
 SCF Done:  E(RB3LYP) =  -270.013796291     A.U. after   10 cycles
            NFock= 10  Conv=0.49D-08     -V/T= 2.0103
 PrsmSu:  requested number of processors reduced to:  30 ShMem   1 Linda.
 D1PCM: PCM CHGder 1st derivatives, ID1Alg=3 FixD1E=F DoIter=F DoCFld=F I1PDM=0.
 CoulSu:  requested number of processors reduced to:  29 ShMem   1 Linda.
 CoulSu:  requested number of processors reduced to:  30 ShMem   1 Linda.
 Calling FoFJK, ICntrl=      2127 FMM=F ISym2X=0 I1Cent= 0 IOpClX= 0 NMat=1 NMatS=1 NMatT=0.
 -------------------------------------------------------------------
 Center     Atomic                   Forces (Hartrees/Bohr)
 Number     Number              X              Y              Z
 -------------------------------------------------------------------
      1        6           0.002138949   -0.001293038    0.003079535
      2        1          -0.001094875   -0.000413902   -0.001490709
      3        1           0.002082750   -0.000190632   -0.000264597
      4        1          -0.000076392   -0.000035684   -0.000918720
      5        6           0.002206205    0.006704982   -0.001012350
      6        6          -0.002598716    0.001850235   -0.004143043
      7        1          -0.002103946    0.000781131    0.002862989
      8        1          -0.000874278    0.000275925    0.000544027
      9        1          -0.000232375    0.000352660    0.000820468
     10        8          -0.003025737   -0.003295375    0.000058573
     11        8           0.016595576   -0.009369835    0.014151426
     12        1          -0.007120648   -0.017825631   -0.000206805
     13        1           0.003388105    0.015336251    0.000012575
     14        1          -0.009284618    0.007122913   -0.013493369
 -------------------------------------------------------------------
 Cartesian Forces:  Max     0.017825631 RMS     0.006240628

 GradGradGradGradGradGradGradGradGradGradGradGradGradGradGradGradGradGrad
 Berny optimization.
 Using GEDIIS/GDIIS optimizer.
 FormGI is forming the generalized inverse of G from B-inverse, IUseBI=4.
 Internal  Forces:  Max     0.017376437 RMS     0.004184218
 Search for a local minimum.
 Step number  14 out of a maximum of   71 on scan point     6 out of    11
 All quantities printed in internal units (Hartrees-Bohrs-Radians)
 Mixed Optimization -- RFO/linear search
 Update second derivatives using D2CorX and points    9    6   12   13   14
                                                     11
 ITU=  0  0  0  1 -1  0  0 -1  1  1  1 -1  1  0
 Use linear search instead of GDIIS.
     Eigenvalues ---    0.00001   0.00027   0.00078   0.00101   0.00155
     Eigenvalues ---    0.00335   0.02277   0.03504   0.06558   0.06835
     Eigenvalues ---    0.06950   0.07572   0.09234   0.12296   0.13644
     Eigenvalues ---    0.15041   0.15831   0.16073   0.16183   0.16495
     Eigenvalues ---    0.20716   0.22838   0.23772   0.30343   0.32897
     Eigenvalues ---    0.33815   0.33907   0.34180   0.34563   0.34717
     Eigenvalues ---    0.39851   0.42818   0.48916   0.68438   6.77372
     Eigenvalues --- 1000.000001000.000001000.000001000.000001000.00000
     Eigenvalues --- 1000.000001000.000001000.000001000.000001000.00000
     Eigenvalues --- 1000.000001000.000001000.000001000.000001000.00000
     Eigenvalues --- 1000.000001000.000001000.000001000.000001000.00000
     Eigenvalues --- 1000.000001000.000001000.000001000.000001000.00000
     Eigenvalues --- 1000.00000
 RFO step:  Lambda=-4.15437605D-03 EMin= 1.28951999D-05
 Skip linear search -- no minimum in search direction.
 SLEqS3 Cycle:    41 Max:0.214966     RMS: 847.197     Conv:0.384730E-02
 Iteration  1 RMS(Cart)=  0.03633126 RMS(Int)=  0.02609581
 SLEqS3 Cycle:   421 Max:0.156835E-01 RMS:0.389126E-02 Conv:0.220593E-03
 SLEqS3 Cycle:   189 Max:0.463180E-01 RMS:0.115055E-01 Conv:0.220593E-03
 Iteration  2 RMS(Cart)=  0.00003615 RMS(Int)=  0.69554159
 SLEqS3 Cycle:    19 Max:0.687924E-01 RMS: 6584.58     Conv:0.295965E-01
 Iteration  3 RMS(Cart)=  0.03367169 RMS(Int)=  0.67827330
 Iteration  4 RMS(Cart)=  0.00133489 RMS(Int)=  0.67450941
 Iteration  5 RMS(Cart)=  0.00027397 RMS(Int)=  0.67383441
 Iteration  6 RMS(Cart)=  0.00027212 RMS(Int)=  0.67315234
 Iteration  7 RMS(Cart)=  0.00027026 RMS(Int)=  0.67246285
 Iteration  8 RMS(Cart)=  0.00026837 RMS(Int)=  0.67176559
 Iteration  9 RMS(Cart)=  0.00026647 RMS(Int)=  0.67106007
 Iteration 10 RMS(Cart)=  0.00026455 RMS(Int)=  0.67034571
 Iteration 11 RMS(Cart)=  0.00026261 RMS(Int)=  0.66962177
 Iteration 12 RMS(Cart)=  0.00026065 RMS(Int)=  0.66888730
 Iteration 13 RMS(Cart)=  0.00025868 RMS(Int)=  0.66814103
 Iteration 14 RMS(Cart)=  0.00025670 RMS(Int)=  0.66738122
 Iteration 15 RMS(Cart)=  0.00025470 RMS(Int)=  0.66660541
 Iteration 16 RMS(Cart)=  0.00025270 RMS(Int)=  0.66580993
 Iteration 17 RMS(Cart)=  0.00025068 RMS(Int)=  0.66498901
 Iteration 18 RMS(Cart)=  0.00024865 RMS(Int)=  0.66413267
 Iteration 19 RMS(Cart)=  0.00024661 RMS(Int)=  0.66322151
 Iteration 20 RMS(Cart)=  0.00024457 RMS(Int)=  0.66220900
 Iteration 21 RMS(Cart)=  0.00024250 RMS(Int)=  0.66092859
 New curvilinear step failed, DQL= 5.42D+00 SP=-3.71D-01.
 ITry= 1 IFail=1 DXMaxC= 1.77D-01 DCOld= 1.00D+10 DXMaxT= 4.04D-01 DXLimC= 3.00D+00 Rises=F
 SLEqS3 Cycle:    41 Max:0.193470     RMS: 762.477     Conv:0.346257E-02
 Iteration  1 RMS(Cart)=  0.03270952 RMS(Int)=  0.02349298
 SLEqS3 Cycle:   421 Max:0.599396E-02 RMS:0.148745E-02 Conv:0.190464E-03
 SLEqS3 Cycle:   421 Max:0.419090E-01 RMS:0.103697E-01 Conv:0.190464E-03
 Iteration  2 RMS(Cart)=  0.00002669 RMS(Int)=  0.69561877
 SLEqS3 Cycle:    19 Max:0.687091E-01 RMS: 9427.17     Conv:0.424179E-01
 Iteration  3 RMS(Cart)=  0.03110621 RMS(Int)=  0.67837967
 Iteration  4 RMS(Cart)=  0.00127661 RMS(Int)=  0.67449219
 Iteration  5 RMS(Cart)=  0.00026980 RMS(Int)=  0.67379110
 Iteration  6 RMS(Cart)=  0.00026786 RMS(Int)=  0.67308153
 Iteration  7 RMS(Cart)=  0.00026591 RMS(Int)=  0.67236285
 Iteration  8 RMS(Cart)=  0.00026394 RMS(Int)=  0.67163424
 Iteration  9 RMS(Cart)=  0.00026195 RMS(Int)=  0.67089466
 Iteration 10 RMS(Cart)=  0.00025994 RMS(Int)=  0.67014268
 Iteration 11 RMS(Cart)=  0.00025792 RMS(Int)=  0.66937635
 Iteration 12 RMS(Cart)=  0.00025589 RMS(Int)=  0.66859286
 Iteration 13 RMS(Cart)=  0.00025384 RMS(Int)=  0.66778793
 Iteration 14 RMS(Cart)=  0.00025178 RMS(Int)=  0.66695461
 Iteration 15 RMS(Cart)=  0.00024971 RMS(Int)=  0.66608048
 Iteration 16 RMS(Cart)=  0.00024763 RMS(Int)=  0.66513985
 Iteration 17 RMS(Cart)=  0.00024553 RMS(Int)=  0.66406429
 Iteration 18 RMS(Cart)=  0.00024343 RMS(Int)=  0.66253029
 New curvilinear step failed, DQL= 5.42D+00 SP=-3.70D-01.
 ITry= 2 IFail=1 DXMaxC= 1.58D-01 DCOld= 1.00D+10 DXMaxT= 4.04D-01 DXLimC= 3.00D+00 Rises=F
 SLEqS3 Cycle:    41 Max:0.171973     RMS: 677.757     Conv:0.307784E-02
 Iteration  1 RMS(Cart)=  0.02908437 RMS(Int)=  0.02088924
 SLEqS3 Cycle:   421 Max:0.374581E-01 RMS:0.926867E-02 Conv:0.160492E-03
 SLEqS3 Cycle:   421 Max:0.373752E-01 RMS:0.923226E-02 Conv:0.160492E-03
 Iteration  2 RMS(Cart)=  0.00001884 RMS(Int)=  0.69570472
 Iteration  3 RMS(Cart)=  0.00102598 RMS(Int)=  0.02048804
 New curvilinear step failed, DQL= 5.43D+00 SP=-5.09D-02.
 ITry= 3 IFail=1 DXMaxC= 1.08D-01 DCOld= 1.00D+10 DXMaxT= 4.04D-01 DXLimC= 3.00D+00 Rises=F
 SLEqS3 Cycle:    41 Max:0.150477     RMS: 593.038     Conv:0.269311E-02
 Iteration  1 RMS(Cart)=  0.02545615 RMS(Int)=  0.01828436
 SLEqS3 Cycle:    30 Max:0.150375     RMS: 28.9972     Conv:0.130720E-03
 Iteration  2 RMS(Cart)=  0.00407600 RMS(Int)=  0.01816081
 SLEqS3 Cycle:   421 Max:0.239961E-02 RMS:0.489976E-03 Conv:0.303816E-04
 SLEqS3 Cycle:   421 Max:0.325176E-01 RMS:0.762236E-02 Conv:0.303816E-04
 Iteration  3 RMS(Cart)=  0.00001221 RMS(Int)=  0.69568013
 Iteration  4 RMS(Cart)=  0.02511761 RMS(Int)=  0.67793069
 Iteration  5 RMS(Cart)=  0.00024582 RMS(Int)=  0.67720355
 Iteration  6 RMS(Cart)=  0.00024408 RMS(Int)=  0.67646664
 Iteration  7 RMS(Cart)=  0.00024229 RMS(Int)=  0.67571913
 Iteration  8 RMS(Cart)=  0.00024049 RMS(Int)=  0.67495970
 Iteration  9 RMS(Cart)=  0.00023868 RMS(Int)=  0.67418663
 Iteration 10 RMS(Cart)=  0.00023685 RMS(Int)=  0.67339749
 Iteration 11 RMS(Cart)=  0.00023501 RMS(Int)=  0.67258864
 Iteration 12 RMS(Cart)=  0.00023315 RMS(Int)=  0.67175440
 Iteration 13 RMS(Cart)=  0.00023128 RMS(Int)=  0.67088501
 Iteration 14 RMS(Cart)=  0.00022940 RMS(Int)=  0.66996171
 Iteration 15 RMS(Cart)=  0.00022751 RMS(Int)=  0.66894051
 Iteration 16 RMS(Cart)=  0.00022561 RMS(Int)=  0.66767052
 New curvilinear step failed, DQL= 5.42D+00 SP=-3.67D-01.
 ITry= 4 IFail=1 DXMaxC= 1.23D-01 DCOld= 1.00D+10 DXMaxT= 4.04D-01 DXLimC= 3.00D+00 Rises=F
 SLEqS3 Cycle:    41 Max:0.128980     RMS: 508.318     Conv:0.230838E-02
 Iteration  1 RMS(Cart)=  0.02182517 RMS(Int)=  0.01567812
 SLEqS3 Cycle:    30 Max:0.128908     RMS: 22.6856     Conv:0.102371E-03
 Iteration  2 RMS(Cart)=  0.00350059 RMS(Int)=  0.01557494
 SLEqS3 Cycle:   421 Max:0.279733E-01 RMS:0.656275E-02 Conv:0.227983E-04
 SLEqS3 Cycle:   421 Max:0.279502E-01 RMS:0.654357E-02 Conv:0.227983E-04
 Iteration  3 RMS(Cart)=  0.00000771 RMS(Int)=  0.69579296
 Iteration  4 RMS(Cart)=  0.00406273 RMS(Int)=  0.69423688
 New curvilinear step failed, DQL= 5.37D+00 SP=-5.79D-01.
 ITry= 5 IFail=1 DXMaxC= 8.82D-02 DCOld= 1.00D+10 DXMaxT= 4.04D-01 DXLimC= 3.00D+00 Rises=F
 SLEqS3 Cycle:    41 Max:0.107483     RMS: 423.598     Conv:0.192365E-02
 Iteration  1 RMS(Cart)=  0.01819178 RMS(Int)=  0.01307031
 SLEqS3 Cycle:    30 Max:0.107439     RMS: 16.9238     Conv:0.764469E-04
 Iteration  2 RMS(Cart)=  0.00292655 RMS(Int)=  0.01298627
 SLEqS3 Cycle:   421 Max:0.128715E-01 RMS:0.296740E-02 Conv:0.153905E-04
 SLEqS3 Cycle:   421 Max:0.233461E-01 RMS:0.545857E-02 Conv:0.153905E-04
 Iteration  3 RMS(Cart)=  0.00000447 RMS(Int)=  0.69591684
 New curvilinear step failed, DQL= 3.86D-03 SP=-9.54D-02.
 ITry= 6 IFail=1 DXMaxC= 7.09D-02 DCOld= 1.00D+10 DXMaxT= 4.04D-01 DXLimC= 3.00D+00 Rises=F
 SLEqS3 Cycle:    41 Max:0.859866E-01 RMS: 338.879     Conv:0.153892E-02
 Iteration  1 RMS(Cart)=  0.01455630 RMS(Int)=  0.01046071
 SLEqS3 Cycle:   421 Max:0.189074E-01 RMS:0.464517E-02 Conv:0.528296E-04
 SLEqS3 Cycle:   421 Max:0.188908E-01 RMS:0.463721E-02 Conv:0.528296E-04
 Iteration  2 RMS(Cart)=  0.00000240 RMS(Int)=  0.01045866
 SLEqS3 Cycle:   421 Max:0.188615E-01 RMS:0.462996E-02 Conv:0.112687E-03
 SLEqS3 Cycle:   421 Max:0.188601E-01 RMS:0.463002E-02 Conv:0.112687E-03
 Iteration  3 RMS(Cart)=  0.00000237 RMS(Int)=  0.69613445
 Iteration  4 RMS(Cart)=  0.00249247 RMS(Int)=  0.69538336
 New curvilinear step failed, DQL= 5.36D+00 SP=-6.12D-01.
 ITry= 7 IFail=1 DXMaxC= 5.56D-02 DCOld= 1.00D+10 DXMaxT= 4.04D-01 DXLimC= 3.00D+00 Rises=F
 SLEqS3 Cycle:    41 Max:0.644899E-01 RMS: 254.159     Conv:0.115419E-02
 Iteration  1 RMS(Cart)=  0.01091905 RMS(Int)=  0.00784909
 SLEqS3 Cycle:   421 Max:0.704325E-02 RMS:0.185194E-02 Conv:0.327855E-04
 SLEqS3 Cycle:   421 Max:0.142020E-01 RMS:0.348107E-02 Conv:0.327855E-04
 Iteration  2 RMS(Cart)=  0.00000102 RMS(Int)=  0.00784822
 SLEqS3 Cycle:   421 Max:0.142023E-01 RMS:0.348077E-02 Conv:0.431425E-04
 SLEqS3 Cycle:   421 Max:0.142006E-01 RMS:0.348077E-02 Conv:0.431425E-04
 Iteration  3 RMS(Cart)=  0.00000101 RMS(Int)=  0.00784736
 SLEqS3 Cycle:   421 Max:0.141856E-01 RMS:0.347680E-02 Conv:0.633986E-04
 SLEqS3 Cycle:   421 Max:0.141856E-01 RMS:0.347684E-02 Conv:0.633986E-04
 Iteration  4 RMS(Cart)=  0.00000101 RMS(Int)=  0.00784650
 SLEqS3 Cycle:   421 Max:0.142934E-01 RMS:0.349959E-02 Conv:0.130286E-03
 SLEqS3 Cycle:    45 Max:0.642023E-01 RMS: 28.7795     Conv:0.130286E-03
 Iteration  5 RMS(Cart)=  0.00003075 RMS(Int)=  0.00784479
 SLEqS3 Cycle:   421 Max:0.644192E-01 RMS:0.141819E-01 Conv:0.469100E-05
 SLEqS3 Cycle:   421 Max:0.644398E-01 RMS:0.141778E-01 Conv:0.469100E-05
 Iteration  6 RMS(Cart)=  0.00168293 RMS(Int)=  0.00779916
 SLEqS3 Cycle:   421 Max:0.140218E-01 RMS:0.327845E-02 Conv:0.130722E-04
 SLEqS3 Cycle:    45 Max:0.644319E-01 RMS: 2.88982     Conv:0.130722E-04
 Iteration  7 RMS(Cart)=  0.00081703 RMS(Int)=  0.00779014
 SLEqS3 Cycle:   421 Max:0.140201E-01 RMS:0.320004E-02 Conv:0.361618E-04
 SLEqS3 Cycle:   421 Max:0.140426E-01 RMS:0.320086E-02 Conv:0.361618E-04
 Iteration  8 RMS(Cart)=  0.00000097 RMS(Int)=  0.69618634
 SLEqS3 Cycle:   421 Max:0.543682E-03 RMS:0.140011E-03 Conv:0.621609E-08
 SLEqS3 Cycle:   421 Max:0.141752E-02 RMS:0.273018E-03 Conv:0.621609E-08
 Iteration  1 RMS(Cart)=  0.00102871 RMS(Int)=  0.00037815
 SLEqS3 Cycle:   421 Max:0.244600E-03 RMS:0.491830E-04 Conv:0.129002E-08
 SLEqS3 Cycle:   421 Max:0.295378E-03 RMS:0.568768E-04 Conv:0.129002E-08
 Iteration  2 RMS(Cart)=  0.00021317 RMS(Int)=  0.00039025
 SLEqS3 Cycle:   421 Max:0.504614E-04 RMS:0.101952E-04 Conv:0.269081E-09
 SLEqS3 Cycle:   421 Max:0.511631E-04 RMS:0.102749E-04 Conv:0.269081E-09
 New curvilinear step failed:  FormB failed.
 Error imposing constraints
 Error termination via Lnk1e in /home/duckter/g16/l103.exe at Thu Jun 27 20:42:37 2024.
 Job cpu time:       0 days  4 hours 32 minutes  3.7 seconds.
 Elapsed time:       0 days  0 hours  8 minutes 52.5 seconds.
 File lengths (MBytes):  RWF=     63 Int=      0 D2E=      0 Chk=      6 Scr=      1
